LAMMPS (23 Jun 2022 - Update 1)
Reading restart file ...
  restart file = 23 Jun 2022, LAMMPS = 23 Jun 2022
  restoring atom style full from restart
  orthogonal box = (0.35556672 0.35556672 0.35556672) to (32.370449 32.370449 32.370449)
  2 by 4 by 4 MPI processor grid
  restoring pair style lj/cut/tip4p/long from restart
  restoring bond style harmonic from restart
  restoring angle style harmonic from restart
  3486 atoms
  2324 bonds
  1324 angles
Finding 1-2 1-3 1-4 neighbors ...
  special bond factors lj:    0        0        0       
  special bond factors coul:  0        0        0       
     4 = max # of 1-2 neighbors
     3 = max # of 1-3 neighbors
     3 = max # of 1-4 neighbors
     4 = max # of special neighbors
  special bonds CPU = 0.001 seconds
  read_restart CPU = 0.009 seconds
  create bodies CPU = 0.000 seconds
  1162 rigid bodies with 3486 atoms
  1.4902253 = max distance from body owner to body atom
Resetting global fix info from restart file:
  fix style: rigid/nvt/small, fix ID: integrate
PPPM initialization ...
  extracting TIP4P info from pair style
  using 12-bit tables for long-range coulomb (../kspace.cpp:342)
  G vector (1/distance) = 0.31046087
  grid = 30 30 30
  stencil order = 5
  estimated absolute RMS force accuracy = 0.0037467932
  estimated relative force accuracy = 1.1283357e-05
  using double precision KISS FFT
  3d grid and FFT values/proc = 4950 960
Generated 0 of 15 mixed pair_coeff terms from arithmetic mixing rule
All restart file global fix info was re-assigned
Neighbor list info ...
  update every 1 steps, delay 0 steps, check yes
  max neighbors/atom: 2000, page size: 100000
  master list distance cutoff = 12.3092
  ghost atom cutoff = 12.3092
  binsize = 6.1546, bins = 6 6 6
  1 neighbor lists, perpetual/occasional/extra = 1 0 0
  (1) pair lj/cut/tip4p/long, perpetual
      attributes: half, newton on
      pair build: half/bin/newton
      stencil: half/bin/3d
      bin: standard
Setting up Verlet run ...
  Unit style    : real
  Current step  : 0
  Time step     : 0.001
Per MPI rank memory allocation (min/avg/max) = 15.51 | 15.53 | 15.55 Mbytes
   Step        Density          Temp          Press          TotEng    
         0   1.2121114      298.57106     -4146161.4     -31203.071    
      1000   1.2121114      299.44352     -493.68789     -31203.628    
Loop time of 2.73691 on 32 procs for 1000 steps with 3486 atoms

Performance: 0.032 ns/day, 760.254 hours/ns, 365.375 timesteps/s
99.5% CPU use with 32 MPI tasks x no OpenMP threads

MPI task timing breakdown:
Section |  min time  |  avg time  |  max time  |%varavg| %total
---------------------------------------------------------------
Pair    | 0.93357    | 1.0725     | 1.2215     |   6.8 | 39.19
Bond    | 0.0032364  | 0.0038206  | 0.0044341  |   0.5 |  0.14
Kspace  | 0.55171    | 0.69548    | 0.82336    |   8.1 | 25.41
Neigh   | 0          | 0          | 0          |   0.0 |  0.00
Comm    | 0.22298    | 0.23153    | 0.24265    |   1.0 |  8.46
Output  | 4.915e-05  | 5.573e-05  | 7.7728e-05 |   0.0 |  0.00
Modify  | 0.72026    | 0.72165    | 0.72373    |   0.1 | 26.37
Other   |            | 0.01187    |            |       |  0.43

Nlocal:        108.938 ave         118 max          95 min
Histogram: 1 0 2 4 0 7 7 3 5 3
Nghost:           4500 ave        4550 max        4450 min
Histogram: 3 2 3 4 5 1 5 4 3 2
Neighs:        45137.7 ave       51888 max       39524 min
Histogram: 3 1 3 8 3 8 0 1 3 2

Total # of neighbors = 1444406
Ave neighs/atom = 414.34481
Ave special neighs/atom = 2.0929432
Neighbor list builds = 0
Dangerous builds = 0
PPPM initialization ...
  extracting TIP4P info from pair style
  using 12-bit tables for long-range coulomb (../kspace.cpp:342)
  G vector (1/distance) = 0.31046087
  grid = 30 30 30
  stencil order = 5
  estimated absolute RMS force accuracy = 0.0037467932
  estimated relative force accuracy = 1.1283357e-05
  using double precision KISS FFT
  3d grid and FFT values/proc = 4950 960
Generated 0 of 15 mixed pair_coeff terms from arithmetic mixing rule
Setting up Verlet run ...
  Unit style    : real
  Current step  : 1000
  Time step     : 0.01
Per MPI rank memory allocation (min/avg/max) = 15.51 | 15.53 | 15.55 Mbytes
   Step        Density          Temp          Press          TotEng    
      1000   1.2121114      299.44352      352.12064     -31203.628    
      2000   1.2121114      291.78158     -576.43365     -31221.918    
Loop time of 2.70312 on 32 procs for 1000 steps with 3486 atoms

Performance: 0.320 ns/day, 75.087 hours/ns, 369.942 timesteps/s
99.6% CPU use with 32 MPI tasks x no OpenMP threads

MPI task timing breakdown:
Section |  min time  |  avg time  |  max time  |%varavg| %total
---------------------------------------------------------------
Pair    | 0.93204    | 1.0707     | 1.2063     |   6.3 | 39.61
Bond    | 0.0032684  | 0.0038013  | 0.0044239  |   0.5 |  0.14
Kspace  | 0.54143    | 0.67192    | 0.79903    |   7.5 | 24.86
Neigh   | 0.001427   | 0.0014679  | 0.0015214  |   0.1 |  0.05
Comm    | 0.22047    | 0.229      | 0.24054    |   1.0 |  8.47
Output  | 4.612e-05  | 5.3407e-05 | 7.6479e-05 |   0.0 |  0.00
Modify  | 0.7138     | 0.71512    | 0.71731    |   0.1 | 26.46
Other   |            | 0.01101    |            |       |  0.41

Nlocal:        108.938 ave         116 max          99 min
Histogram: 1 3 3 2 1 6 1 8 4 3
Nghost:        4499.59 ave        4559 max        4447 min
Histogram: 5 1 3 6 2 4 4 3 2 2
Neighs:        45143.5 ave       51522 max       38969 min
Histogram: 1 1 5 6 6 2 6 0 4 1

Total # of neighbors = 1444592
Ave neighs/atom = 414.39816
Ave special neighs/atom = 2.0929432
Neighbor list builds = 1
Dangerous builds = 0
PPPM initialization ...
  extracting TIP4P info from pair style
  using 12-bit tables for long-range coulomb (../kspace.cpp:342)
  G vector (1/distance) = 0.31046087
  grid = 30 30 30
  stencil order = 5
  estimated absolute RMS force accuracy = 0.0037467932
  estimated relative force accuracy = 1.1283357e-05
  using double precision KISS FFT
  3d grid and FFT values/proc = 4950 960
Generated 0 of 15 mixed pair_coeff terms from arithmetic mixing rule
Setting up Verlet run ...
  Unit style    : real
  Current step  : 2000
  Time step     : 0.1
Per MPI rank memory allocation (min/avg/max) = 15.51 | 15.53 | 15.55 Mbytes
   Step        Density          Temp          Press          TotEng    
      2000   1.2121114      291.78158     -585.72697     -31221.918    
      3000   1.2121114      299.52999     -321.95194     -31085.267    
Loop time of 2.76063 on 32 procs for 1000 steps with 3486 atoms

Performance: 3.130 ns/day, 7.668 hours/ns, 362.237 timesteps/s
99.6% CPU use with 32 MPI tasks x no OpenMP threads

MPI task timing breakdown:
Section |  min time  |  avg time  |  max time  |%varavg| %total
---------------------------------------------------------------
Pair    | 0.88275    | 1.0668     | 1.2068     |   6.2 | 38.64
Bond    | 0.0033988  | 0.00388    | 0.0045197  |   0.5 |  0.14
Kspace  | 0.54824    | 0.68178    | 0.8533     |   7.4 | 24.70
Neigh   | 0.017901   | 0.018028   | 0.018304   |   0.1 |  0.65
Comm    | 0.23221    | 0.23895    | 0.25203    |   1.0 |  8.66
Output  | 5.0412e-05 | 6.5037e-05 | 8.6723e-05 |   0.0 |  0.00
Modify  | 0.73738    | 0.73919    | 0.74111    |   0.1 | 26.78
Other   |            | 0.01192    |            |       |  0.43

Nlocal:        108.938 ave         117 max          94 min
Histogram: 1 1 0 2 3 3 11 4 2 5
Nghost:        4491.62 ave        4523 max        4468 min
Histogram: 4 0 8 3 4 5 4 0 3 1
Neighs:        45149.4 ave       51436 max       36421 min
Histogram: 1 0 0 3 6 9 5 5 1 2

Total # of neighbors = 1444782
Ave neighs/atom = 414.45267
Ave special neighs/atom = 2.0929432
Neighbor list builds = 12
Dangerous builds = 0
PPPM initialization ...
  extracting TIP4P info from pair style
  using 12-bit tables for long-range coulomb (../kspace.cpp:342)
  G vector (1/distance) = 0.31046087
  grid = 30 30 30
  stencil order = 5
  estimated absolute RMS force accuracy = 0.0037467932
  estimated relative force accuracy = 1.1283357e-05
  using double precision KISS FFT
  3d grid and FFT values/proc = 4950 960
Generated 0 of 15 mixed pair_coeff terms from arithmetic mixing rule
Setting up Verlet run ...
  Unit style    : real
  Current step  : 3000
  Time step     : 0.2
Per MPI rank memory allocation (min/avg/max) = 15.51 | 15.53 | 15.55 Mbytes
   Step        Density          Temp          Press          TotEng    
      3000   1.2121114      299.52999      2446.6066     -31085.267    
      4000   1.2121114      299.88994      632.11905     -31140.859    
Loop time of 2.96743 on 32 procs for 1000 steps with 3486 atoms

Performance: 5.823 ns/day, 4.121 hours/ns, 336.991 timesteps/s
99.5% CPU use with 32 MPI tasks x no OpenMP threads

MPI task timing breakdown:
Section |  min time  |  avg time  |  max time  |%varavg| %total
---------------------------------------------------------------
Pair    | 0.8845     | 1.0419     | 1.1943     |   6.7 | 35.11
Bond    | 0.003582   | 0.0041547  | 0.0047398  |   0.4 |  0.14
Kspace  | 0.59655    | 0.74203    | 0.88354    |   7.5 | 25.01
Neigh   | 0.034426   | 0.034786   | 0.035119   |   0.1 |  1.17
Comm    | 0.26799    | 0.27503    | 0.29125    |   0.9 |  9.27
Output  | 6.1097e-05 | 7.4622e-05 | 0.00010162 |   0.0 |  0.00
Modify  | 0.85227    | 0.85455    | 0.85634    |   0.1 | 28.80
Other   |            | 0.01489    |            |       |  0.50

Nlocal:        108.938 ave         120 max          96 min
Histogram: 1 2 2 3 3 8 4 7 0 2
Nghost:        4491.31 ave        4520 max        4467 min
Histogram: 2 3 5 4 6 1 7 2 1 1
Neighs:        45139.1 ave       52774 max       39656 min
Histogram: 2 4 4 6 7 3 1 3 1 1

Total # of neighbors = 1444450
Ave neighs/atom = 414.35743
Ave special neighs/atom = 2.0929432
Neighbor list builds = 24
Dangerous builds = 0
PPPM initialization ...
  extracting TIP4P info from pair style
  using 12-bit tables for long-range coulomb (../kspace.cpp:342)
  G vector (1/distance) = 0.31046087
  grid = 30 30 30
  stencil order = 5
  estimated absolute RMS force accuracy = 0.0037467932
  estimated relative force accuracy = 1.1283357e-05
  using double precision KISS FFT
  3d grid and FFT values/proc = 4950 960
Generated 0 of 15 mixed pair_coeff terms from arithmetic mixing rule
Setting up Verlet run ...
  Unit style    : real
  Current step  : 4000
  Time step     : 0.5
Per MPI rank memory allocation (min/avg/max) = 15.51 | 15.53 | 15.55 Mbytes
   Step        Density          Temp          Press          TotEng    
      4000   1.2121114      299.88994      4234.837      -31140.859    
      5000   1.2121114      304.36106     -1.1624455     -31158.437    
Loop time of 3.06579 on 32 procs for 1000 steps with 3486 atoms

Performance: 14.091 ns/day, 1.703 hours/ns, 326.181 timesteps/s
99.5% CPU use with 32 MPI tasks x no OpenMP threads

MPI task timing breakdown:
Section |  min time  |  avg time  |  max time  |%varavg| %total
---------------------------------------------------------------
Pair    | 0.92383    | 1.0469     | 1.1987     |   6.0 | 34.15
Bond    | 0.0035594  | 0.004182   | 0.0046491  |   0.4 |  0.14
Kspace  | 0.60137    | 0.74659    | 0.85602    |   6.7 | 24.35
Neigh   | 0.087938   | 0.088699   | 0.089436   |   0.1 |  2.89
Comm    | 0.27554    | 0.28355    | 0.29787    |   0.9 |  9.25
Output  | 5.4552e-05 | 6.1298e-05 | 9.3998e-05 |   0.0 |  0.00
Modify  | 0.8782     | 0.88063    | 0.88234    |   0.1 | 28.72
Other   |            | 0.0152     |            |       |  0.50

Nlocal:        108.938 ave         117 max          88 min
Histogram: 1 0 0 0 3 1 10 5 9 3
Nghost:        4502.88 ave        4541 max        4466 min
Histogram: 2 4 5 2 2 4 6 1 3 3
Neighs:        45143.8 ave       52796 max       37426 min
Histogram: 1 2 2 5 8 6 3 2 0 3

Total # of neighbors = 1444603
Ave neighs/atom = 414.40132
Ave special neighs/atom = 2.0929432
Neighbor list builds = 61
Dangerous builds = 0
  create bodies CPU = 0.000 seconds
  1162 rigid bodies with 3486 atoms
  1.4902253 = max distance from body owner to body atom

CITE-CITE-CITE-CITE-CITE-CITE-CITE-CITE-CITE-CITE-CITE-CITE-CITE

Your simulation uses code contributions which should be cited:
- fix ave/ordern command:
The log file lists these citations in BibTeX format.

CITE-CITE-CITE-CITE-CITE-CITE-CITE-CITE-CITE-CITE-CITE-CITE-CITE

PPPM initialization ...
  extracting TIP4P info from pair style
  using 12-bit tables for long-range coulomb (../kspace.cpp:342)
  G vector (1/distance) = 0.31046087
  grid = 30 30 30
  stencil order = 5
  estimated absolute RMS force accuracy = 0.0037467932
  estimated relative force accuracy = 1.1283357e-05
  using double precision KISS FFT
  3d grid and FFT values/proc = 4950 960
Generated 0 of 15 mixed pair_coeff terms from arithmetic mixing rule
Setting up Verlet run ...
  Unit style    : real
  Current step  : 0
  Time step     : 2
Per MPI rank memory allocation (min/avg/max) = 19.44 | 19.46 | 19.48 Mbytes
   Step        Density          Temp          Press          TotEng    
         0   1.2121114      304.36106      3333.8002     -31158.437    
    100000   1.2140442      292.73058      695.58453     -31212.203    
    200000   1.2161099      292.80998      410.67979     -31184.176    
    300000   1.2079644      294.80538     -320.64887     -31189.272    
    400000   1.2102978      303.65075     -642.60473     -31119.61     
    500000   1.2058202      293.78746     -816.78505     -31158.436    
    600000   1.2027106      291.68613     -592.27854     -31279.956    
    700000   1.2167309      299.41887      118.15676     -31221.512    
    800000   1.2122307      302.61474      1004.6586     -31055.991    
    900000   1.2129785      300.77105     -136.10244     -31268.994    
   1000000   1.2053646      304.45819      444.08479     -31080.901    
   1100000   1.2141407      293.18753      103.26967     -31255.492    
   1200000   1.2146235      289.80411      243.15755     -31282.075    
   1300000   1.215419       300.6513       556.38825     -31122.008    
   1400000   1.2101621      295.16981      300.48424     -31183.033    
   1500000   1.2127193      293.20751     -226.74955     -31177.172    
   1600000   1.2139157      296.93187      458.49513     -31237.921    
   1700000   1.2022709      294.61231      69.258092     -31192.772    
   1800000   1.1956467      288.80564     -15.36524      -31263.087    
   1900000   1.2185132      303.474        438.53055     -31156.767    
   2000000   1.2199994      298.73477      562.85871     -31189.214    
   2100000   1.2036726      289.69241     -595.2343      -31122.851    
   2200000   1.2059795      298.91413      358.00806     -31121.851    
   2300000   1.2061344      294.16426     -433.0033      -31092.782    
   2400000   1.2093069      296.93955      193.29016     -31169.162    
   2500000   1.2219073      292.11004      77.42033      -31295.437    
   2600000   1.2149152      297.39611     -648.37357     -31241.276    
   2700000   1.219631       295.66321      447.31657     -31258.321    
   2800000   1.2164347      306.22624      1039.0439     -31088.995    
   2900000   1.2110689      298.16917     -935.74376     -31223.549    
   3000000   1.203276       291.90018     -804.21939     -31153.637    
   3100000   1.2127951      291.39316      1206.1544     -31193.525    
   3200000   1.2077034      295.1695      -555.06497     -31150.203    
   3300000   1.2144551      296.06853      329.74341     -31166.582    
   3400000   1.2047178      294.38651     -908.60889     -31183.386    
   3500000   1.221661       297.15496      716.29984     -31214.96     
   3600000   1.210636       295.50117     -668.00501     -31200.714    
   3700000   1.2067719      296.49605     -298.59287     -31241.648    
   3800000   1.2099741      298.8733      -423.54765     -31114.836    
   3900000   1.2182788      297.95093     -396.15062     -31177.183    
   4000000   1.2149037      300.14215      406.63442     -31115.984    
   4100000   1.2171732      286.4032       311.5226      -31233.638    
   4200000   1.2076259      302.3437      -379.81539     -31124.357    
   4300000   1.2138782      284.56266     -794.15625     -31247.477    
   4400000   1.2125393      295.67898     -182.54128     -31219.262    
   4500000   1.215932       298.64815      640.8347      -31088.858    
   4600000   1.2087619      297.30193     -176.35145     -31227.319    
   4700000   1.2179862      295.98356      417.73835     -31190.634    
   4800000   1.2075189      294.88476      285.12875     -31274.035    
   4900000   1.2145435      302.32628     -128.00342     -31144.396    
   5000000   1.2041741      303.48334     -618.23445     -31098.637    
   5100000   1.2107414      297.84167     -611.11717     -31280.904    
   5200000   1.2053822      292.72195     -60.093618     -31229.06     
   5300000   1.2063906      291.76694     -563.04407     -31160.015    
   5400000   1.2060653      296.39384     -735.45505     -31080.871    
   5500000   1.219832       294.54789      454.75005     -31117.33     
   5600000   1.2127945      293.46275      383.1923      -31122.32     
   5700000   1.2159837      298.04742      683.07227     -31156.317    
   5800000   1.205959       304.94197      271.45694     -31086.577    
   5900000   1.2143401      292.27685      720.89482     -31175.536    
   6000000   1.2034974      301.18058      267.44284     -31127.498    
   6100000   1.2094082      289.02281      184.23528     -31173.45     
   6200000   1.2058734      298.3864      -195.40357     -31133.832    
   6300000   1.2068737      286.17823     -558.52135     -31281.162    
   6400000   1.2057143      298.58366     -116.97797     -31087.537    
   6500000   1.1975503      285.52417     -861.71714     -31253.458    
   6600000   1.2128807      296.12043     -205.3355      -31096.749    
   6700000   1.1997839      296.5129      -320.13293     -31200.525    
   6800000   1.218522       299.21696      939.24032     -31217.129    
   6900000   1.1995986      299.98002      221.22099     -31140.963    
   7000000   1.2204459      300.89039      1134.6495     -31177.237    
   7100000   1.2062906      301.2944      -695.05619     -31082.551    
   7200000   1.209278       289.34482      472.67956     -31190.48     
   7300000   1.2164794      293.98442     -888.13244     -31175.14     
   7400000   1.2057167      297.45609     -179.81684     -31086.791    
   7500000   1.2183016      292.60797      494.63374     -31301.191    
   7600000   1.2163825      293.65373      793.03978     -31204.556    
   7700000   1.2137467      296.89423      104.15067     -31084.451    
   7800000   1.204991       285.93758      32.058606     -31226.766    
   7900000   1.21723        300.44892      694.51187     -31171.614    
   8000000   1.2174048      296.33154     -740.65072     -31246.684    
   8100000   1.2161847      289.67996      456.27371     -31231.383    
   8200000   1.2041873      289.54042     -333.87481     -31143.796    
   8300000   1.2236654      289.96971      704.10797     -31368.853    
   8400000   1.2212384      291.22931     -115.98023     -31196.343    
   8500000   1.2160913      296.01302      7.506409      -31209.897    
   8600000   1.2193721      297.20742      492.89602     -31181.616    
   8700000   1.2103333      300.40323      72.087347     -31198.016    
   8800000   1.2100238      292.2842       854.8089      -31114.63     
   8900000   1.211043       288.47804     -539.65312     -31280.913    
   9000000   1.2138392      298.35323      476.93723     -31076.446    
   9100000   1.205488       290.25642      16.963648     -31286.85     
   9200000   1.2138975      297.35041      999.22017     -31130.721    
   9300000   1.2089287      298.88147     -598.1924      -31108.859    
   9400000   1.2010436      294.09198     -491.25665     -31163.976    
   9500000   1.2142521      290.62149      709.11519     -31153.295    
   9600000   1.2151364      287.16381      137.86565     -31290.762    
   9700000   1.2154999      289.48647      1149.888      -31274.505    
   9800000   1.212328       291.73661      28.657904     -31251.08     
   9900000   1.1974001      299.74645     -35.483586     -31243.109    
  10000000   1.2170403      302.65094      705.86265     -31118.889    
  10100000   1.2131351      298.2148      -275.99319     -31208.564    
  10200000   1.2153006      307.8473       680.32189     -31168.375    
  10300000   1.2214524      297.59         489.91718     -31176.501    
  10400000   1.2188897      295.12017      590.42347     -31247.712    
  10500000   1.2150231      303.73203      230.821       -31221.991    
  10600000   1.2065417      287.97687     -493.71608     -31294.185    
  10700000   1.2175489      296.41295      416.47324     -31239.728    
  10800000   1.2079499      291.72704     -225.90378     -31141.709    
  10900000   1.2098949      300.59198     -394.26148     -31152.382    
  11000000   1.2087549      304.96556      73.160764     -31121.599    
  11100000   1.2267166      296.52721      58.495469     -31217.506    
  11200000   1.209149       296.2075       234.49731     -31109.027    
  11300000   1.2048627      290.08181     -420.46239     -31174.005    
  11400000   1.2125014      289.29855      105.03381     -31213.559    
  11500000   1.2079174      284.06488     -15.906943     -31268.103    
  11600000   1.2179272      294.08222     -716.9489      -31186.949    
  11700000   1.2117533      295.21134     -576.7761      -31206.816    
  11800000   1.2164333      299.73754      455.07831     -31109.514    
  11900000   1.2168183      293.10248     -3.0294875     -31135.353    
  12000000   1.2060616      301.7621       57.194199     -31134.607    
  12100000   1.2054676      293.65155     -264.27969     -31227.643    
  12200000   1.2128028      295.56216      172.80435     -31198.052    
  12300000   1.2106138      289.13042      382.12555     -31243.105    
  12400000   1.2208486      289.05103      437.65031     -31234.729    
  12500000   1.2177477      296.76022     -644.79313     -31190.424    
  12600000   1.2079751      306.55018      468.94431     -31039.659    
  12700000   1.2149641      296.25119      549.43281     -31125.389    
  12800000   1.207225       302.89348     -152.95773     -31093.956    
  12900000   1.2126578      289.10527      87.934322     -31188.422    
  13000000   1.2086439      295.53481      400.09163     -31196.759    
  13100000   1.2068917      291.91256     -822.46921     -31190.843    
  13200000   1.2113863      294.78052     -218.06434     -31184.853    
  13300000   1.2156202      294.80936      693.90927     -31257.527    
  13400000   1.2042308      289.41565     -1250.448      -31270.325    
  13500000   1.2120231      297.27694      1255.5595     -31177.883    
  13600000   1.2100242      294.72732      100.91773     -31182.09     
  13700000   1.2113991      297.23135     -521.34125     -31124.451    
  13800000   1.2180868      291.65062     -310.94221     -31244.883    
  13900000   1.2080613      303.50844     -992.31743     -31200.471    
  14000000   1.2217443      295.9107       672.28206     -31205.926    
  14100000   1.2117398      294.38617     -554.76001     -31136.744    
  14200000   1.2125664      288.39552     -73.270825     -31308.797    
  14300000   1.198868       295.08287     -48.970334     -31206.294    
  14400000   1.2159547      304.1539       228.43676     -31116.678    
  14500000   1.2081382      295.25668     -168.35443     -31146.806    
  14600000   1.199813       308.86063     -742.26331     -31096.502    
  14700000   1.2154643      296.8107      -1045.9064     -31266.632    
  14800000   1.2052059      291.4266      -417.22691     -31153.675    
  14900000   1.2165808      304.34551     -563.3927      -31088.493    
  15000000   1.2101405      294.74716      222.51709     -31209.713    
  15100000   1.2060692      301.13786     -83.409556     -31065.705    
  15200000   1.2088326      283.61363      910.57998     -31199.824    
  15300000   1.2253371      291.65447      1043.0657     -31240.925    
  15400000   1.2087917      297.84732     -1031.4639     -31114.269    
  15500000   1.2061284      298.96702      159.67404     -31093.771    
  15600000   1.2152097      299.12214     -160.54587     -31187.42     
  15700000   1.217177       289.76957      319.9385      -31184.682    
  15800000   1.2106422      286.01586      147.45994     -31185.853    
  15900000   1.2255236      294.03132      872.44378     -31279.29     
  16000000   1.1987868      296.69706     -32.779312     -31168.307    
  16100000   1.2109186      294.77188      217.86819     -31188.453    
  16200000   1.2177931      292.27396      65.896598     -31257.818    
  16300000   1.2154884      292.00397     -220.77537     -31255.517    
  16400000   1.2168375      297.12194      468.51282     -31156.031    
  16500000   1.2100308      292.55473     -846.06918     -31261.474    
  16600000   1.221618       303.10833      735.57335     -31114.282    
  16700000   1.2055965      301.92392     -270.81212     -31128.552    
  16800000   1.1996268      305.78177     -1489.7452     -31107.567    
  16900000   1.2116727      308.77935      4.547529      -31074.549    
  17000000   1.2080289      296.66753     -198.20447     -31203.274    
  17100000   1.2155542      296.99503     -177.00221     -31219.144    
  17200000   1.2076347      305.41125     -151.88651     -31078.995    
  17300000   1.2204017      292.89071      119.25563     -31221.477    
  17400000   1.1980063      289.47067     -275.14623     -31187.836    
  17500000   1.1995547      294.60709     -1173.1506     -31191.592    
  17600000   1.206927       288.35418     -538.23908     -31245.436    
slurmstepd: error: *** STEP 2009102.0 ON cmp151 CANCELLED AT 2023-02-12T12:40:36 DUE TO TIME LIMIT ***
slurmstepd: error: *** JOB 2009102 ON cmp151 CANCELLED AT 2023-02-12T12:40:36 DUE TO TIME LIMIT ***
srun: Job step aborted: Waiting up to 32 seconds for job step to finish.
