created by fftool

3324 atoms
2216 bonds
1216 angles
6 atom types
3 bond types
2 angle types
0.000000 32.221477 xlo xhi
0.000000 32.221477 ylo yhi
0.000000 32.221477 zlo zhi

Atoms

      1       1    1  -1.112800  5.099045e+00  1.313426e+01  2.850197e+01  # Ow water
      2       1    2   0.556400  4.307611e+00  1.299279e+01  2.798250e+01  # Hw water
      3       1    2   0.556400  5.570171e+00  1.230247e+01  2.845294e+01  # Hw water
      4       2    1  -1.112800  1.955827e+01  1.052024e+01  6.711172e+00  # Ow water
      5       2    2   0.556400  2.051352e+01  1.045923e+01  6.709373e+00  # Hw water
      6       2    2   0.556400  1.931712e+01  1.048253e+01  7.636729e+00  # Hw water
      7       3    1  -1.112800  3.015253e+01  5.258045e+00  1.476898e+01  # Ow water
      8       3    2   0.556400  3.072269e+01  4.657933e+00  1.524962e+01  # Hw water
      9       3    2   0.556400  3.072469e+01  5.661765e+00  1.411639e+01  # Hw water
     10       4    1  -1.112800  1.858420e+01  1.349262e+01  1.377181e+01  # Ow water
     11       4    2   0.556400  1.822538e+01  1.436692e+01  1.392370e+01  # Hw water
     12       4    2   0.556400  1.801133e+01  1.311024e+01  1.310709e+01  # Hw water
     13       5    1  -1.112800  3.002691e+01  8.031760e+00  2.664946e+00  # Ow water
     14       5    2   0.556400  2.929807e+01  8.242683e+00  2.081395e+00  # Hw water
     15       5    2   0.556400  3.074597e+01  7.800552e+00  2.076953e+00  # Hw water
     16       6    1  -1.112800  3.058619e+01  1.835925e+01  1.186999e+01  # Ow water
     17       6    2   0.556400  3.072258e+01  1.864991e+01  1.096825e+01  # Hw water
     18       6    2   0.556400  3.072220e+01  1.741224e+01  1.184006e+01  # Hw water
     19       7    1  -1.112800  2.523606e+01  1.062893e+01  3.070718e+01  # Ow water
     20       7    2   0.556400  2.484332e+01  1.075507e+01  2.984343e+01  # Hw water
     21       7    2   0.556400  2.548697e+01  9.705360e+00  3.072417e+01  # Hw water
     22       8    1  -1.112800  1.508563e+00  3.026393e+01  2.674276e+00  # Ow water
     23       8    2   0.556400  1.666392e+00  2.964496e+01  1.961397e+00  # Hw water
     24       8    2   0.556400  1.492156e+00  2.972220e+01  3.463253e+00  # Hw water
     25       9    1  -1.112800  3.071945e+01  1.401942e+01  2.456810e+01  # Ow water
     26       9    2   0.556400  3.073595e+01  1.321652e+01  2.404722e+01  # Hw water
     27       9    2   0.556400  3.073222e+01  1.371672e+01  2.547609e+01  # Hw water
     28      10    1  -1.112800  4.202401e+00  1.158578e+01  2.558541e+01  # Ow water
     29      10    2   0.556400  3.940153e+00  1.075405e+01  2.519083e+01  # Hw water
     30      10    2   0.556400  3.383743e+00  1.197311e+01  2.589524e+01  # Hw water
     31      11    1  -1.112800  1.901284e+01  2.906093e+01  1.662494e+01  # Ow water
     32      11    2   0.556400  1.979131e+01  2.870231e+01  1.705110e+01  # Hw water
     33      11    2   0.556400  1.862754e+01  2.831630e+01  1.616310e+01  # Hw water
     34      12    1  -1.112800  7.261673e+00  1.656016e+01  2.198606e+00  # Ow water
     35      12    2   0.556400  7.661790e+00  1.676055e+01  3.044760e+00  # Hw water
     36      12    2   0.556400  6.428156e+00  1.614469e+01  2.419658e+00  # Hw water
     37      13    1  -1.112800  3.050616e+01  1.339014e+01  3.054441e+01  # Ow water
     38      13    2   0.556400  2.957498e+01  1.325758e+01  3.072204e+01  # Hw water
     39      13    2   0.556400  3.072181e+01  1.272808e+01  2.988760e+01  # Hw water
     40      14    1  -1.112800  2.246099e+00  1.461502e+01  9.627573e+00  # Ow water
     41      14    2   0.556400  2.973976e+00  1.481855e+01  1.021494e+01  # Hw water
     42      14    2   0.556400  1.499751e+00  1.447427e+01  1.021014e+01  # Hw water
     43      15    1  -1.112800  2.660343e+01  9.733171e+00  2.031682e+00  # Ow water
     44      15    2   0.556400  2.587679e+01  1.005873e+01  1.500422e+00  # Hw water
     45      15    2   0.556400  2.700740e+01  9.051960e+00  1.494103e+00  # Hw water
     46      16    1  -1.112800  1.188180e+01  3.011693e+01  2.641757e+01  # Ow water
     47      16    2   0.556400  1.136211e+01  3.072640e+01  2.694169e+01  # Hw water
     48      16    2   0.556400  1.225391e+01  3.065692e+01  2.572031e+01  # Hw water
     49      17    1  -1.112800  2.652700e+01  2.389652e+01  8.173770e+00  # Ow water
     50      17    2   0.556400  2.674722e+01  2.437197e+01  8.974816e+00  # Hw water
     51      17    2   0.556400  2.589190e+01  2.323706e+01  8.453017e+00  # Hw water
     52      18    1  -1.112800  6.563742e+00  6.219257e+00  6.381299e+00  # Ow water
     53      18    2   0.556400  6.976960e+00  5.437974e+00  6.748827e+00  # Hw water
     54      18    2   0.556400  7.196938e+00  6.547984e+00  5.743153e+00  # Hw water
     55      19    1  -1.112800  1.796421e+01  2.566560e+01  9.877972e+00  # Ow water
     56      19    2   0.556400  1.821414e+01  2.599597e+01  9.015059e+00  # Hw water
     57      19    2   0.556400  1.726631e+01  2.625344e+01  1.016711e+01  # Hw water
     58      20    1  -1.112800  3.048757e+01  1.409404e+01  9.647420e+00  # Ow water
     59      20    2   0.556400  3.069068e+01  1.440305e+01  1.053030e+01  # Hw water
     60      20    2   0.556400  3.072755e+01  1.316745e+01  9.656335e+00  # Hw water
     61      21    1  -1.112800  9.917607e+00  1.292895e+01  3.480274e+00  # Ow water
     62      21    2   0.556400  1.029026e+01  1.296221e+01  4.361324e+00  # Hw water
     63      21    2   0.556400  1.063889e+01  1.263162e+01  2.925684e+00  # Hw water
     64      22    1  -1.112800  3.061377e+01  1.631244e+01  1.495161e+00  # Ow water
     65      22    2   0.556400  3.072262e+01  1.722826e+01  1.751392e+00  # Hw water
     66      22    2   0.556400  3.072555e+01  1.582070e+01  2.308747e+00  # Hw water
     67      23    1  -1.112800  5.657693e+00  9.364574e+00  2.344915e+01  # Ow water
     68      23    2   0.556400  5.209208e+00  8.874927e+00  2.413860e+01  # Hw water
     69      23    2   0.556400  5.347955e+00  8.969727e+00  2.263406e+01  # Hw water
     70      24    1  -1.112800  2.268722e+01  2.123081e+01  3.057904e+01  # Ow water
     71      24    2   0.556400  2.324739e+01  2.046907e+01  3.072797e+01  # Hw water
     72      24    2   0.556400  2.280034e+01  2.143404e+01  2.965053e+01  # Hw water
     73      25    1  -1.112800  7.470147e+00  2.356655e+01  4.193103e+00  # Ow water
     74      25    2   0.556400  8.349023e+00  2.319172e+01  4.250650e+00  # Hw water
     75      25    2   0.556400  7.602425e+00  2.450741e+01  4.309317e+00  # Hw water
     76      26    1  -1.112800  1.708354e+01  1.704736e+01  2.051496e+00  # Ow water
     77      26    2   0.556400  1.746810e+01  1.772847e+01  1.499738e+00  # Hw water
     78      26    2   0.556400  1.720857e+01  1.623804e+01  1.555922e+00  # Hw water
     79      27    1  -1.112800  2.113188e+01  2.558119e+01  1.489702e+00  # Ow water
     80      27    2   0.556400  2.148468e+01  2.470038e+01  1.615935e+00  # Hw water
     81      27    2   0.556400  2.189921e+01  2.615288e+01  1.514360e+00  # Hw water
     82      28    1  -1.112800  2.515279e+01  6.939960e+00  1.748879e+01  # Ow water
     83      28    2   0.556400  2.525734e+01  6.052858e+00  1.783281e+01  # Hw water
     84      28    2   0.556400  2.446195e+01  6.862330e+00  1.683081e+01  # Hw water
     85      29    1  -1.112800  1.560990e+01  3.019077e+01  1.171314e+01  # Ow water
     86      29    2   0.556400  1.553797e+01  3.072158e+01  1.091985e+01  # Hw water
     87      29    2   0.556400  1.481836e+01  2.965254e+01  1.171434e+01  # Hw water
     88      30    1  -1.112800  1.443767e+01  1.513789e+01  1.554000e+00  # Ow water
     89      30    2   0.556400  1.474939e+01  1.596824e+01  1.913968e+00  # Hw water
     90      30    2   0.556400  1.522136e+01  1.459110e+01  1.498501e+00  # Hw water
     91      31    1  -1.112800  1.930647e+01  4.897571e+00  2.253537e+01  # Ow water
     92      31    2   0.556400  2.001384e+01  4.479393e+00  2.204449e+01  # Hw water
     93      31    2   0.556400  1.880314e+01  5.372118e+00  2.187379e+01  # Hw water
     94      32    1  -1.112800  8.709670e+00  2.838541e+01  1.168565e+01  # Ow water
     95      32    2   0.556400  8.313851e+00  2.754820e+01  1.144349e+01  # Hw water
     96      32    2   0.556400  8.652339e+00  2.891662e+01  1.089145e+01  # Hw water
     97      33    1  -1.112800  1.753306e+01  3.022911e+01  3.072159e+01  # Ow water
     98      33    2   0.556400  1.834745e+01  3.072145e+01  3.061861e+01  # Hw water
     99      33    2   0.556400  1.713297e+01  3.024246e+01  2.985212e+01  # Hw water
    100      34    1  -1.112800  3.072920e+01  9.496552e+00  7.318525e+00  # Ow water
    101      34    2   0.556400  3.064162e+01  8.652607e+00  7.761600e+00  # Hw water
    102      34    2   0.556400  3.016242e+01  1.008771e+01  7.814031e+00  # Hw water
    103      35    1  -1.112800  1.097039e+01  3.071291e+01  2.278998e+01  # Ow water
    104      35    2   0.556400  1.075327e+01  3.072640e+01  2.372213e+01  # Hw water
    105      35    2   0.556400  1.110608e+01  2.978704e+01  2.258855e+01  # Hw water
    106      36    1  -1.112800  2.557503e+01  1.984817e+01  2.379029e+01  # Ow water
    107      36    2   0.556400  2.648900e+01  2.012880e+01  2.374418e+01  # Hw water
    108      36    2   0.556400  2.509649e+01  2.063230e+01  2.405930e+01  # Hw water
    109      37    1  -1.112800  7.787161e+00  2.327835e+01  1.557654e+01  # Ow water
    110      37    2   0.556400  7.870485e+00  2.250703e+01  1.501586e+01  # Hw water
    111      37    2   0.556400  7.132048e+00  2.382278e+01  1.513991e+01  # Hw water
    112      38    1  -1.112800  7.931200e+00  4.299342e+00  2.084804e+00  # Ow water
    113      38    2   0.556400  8.677792e+00  4.264218e+00  1.486812e+00  # Hw water
    114      38    2   0.556400  7.167569e+00  4.366705e+00  1.511603e+00  # Hw water
    115      39    1  -1.112800  1.060627e+01  1.455533e+01  1.518138e+01  # Ow water
    116      39    2   0.556400  1.019966e+01  1.379514e+01  1.476544e+01  # Hw water
    117      39    2   0.556400  9.993143e+00  1.527283e+01  1.502170e+01  # Hw water
    118      40    1  -1.112800  1.577380e+01  2.111711e+00  1.430839e+01  # Ow water
    119      40    2   0.556400  1.559066e+01  2.911487e+00  1.381539e+01  # Hw water
    120      40    2   0.556400  1.611118e+01  1.498964e+00  1.365498e+01  # Hw water
    121      41    1  -1.112800  2.575685e+01  1.492832e+00  2.849684e+01  # Ow water
    122      41    2   0.556400  2.643537e+01  1.483703e+00  2.782174e+01  # Hw water
    123      41    2   0.556400  2.493323e+01  1.501685e+00  2.800921e+01  # Hw water
    124      42    1  -1.112800  1.373878e+01  1.405609e+01  2.529135e+01  # Ow water
    125      42    2   0.556400  1.419423e+01  1.446345e+01  2.602813e+01  # Hw water
    126      42    2   0.556400  1.371078e+01  1.473777e+01  2.461997e+01  # Hw water
    127      43    1  -1.112800  4.837324e+00  2.080950e+01  4.751975e+00  # Ow water
    128      43    2   0.556400  4.243910e+00  2.155117e+01  4.870402e+00  # Hw water
    129      43    2   0.556400  4.659185e+00  2.049899e+01  3.864238e+00  # Hw water
    130      44    1  -1.112800  1.414219e+01  1.152633e+01  9.532912e+00  # Ow water
    131      44    2   0.556400  1.454629e+01  1.205545e+01  8.845184e+00  # Hw water
    132      44    2   0.556400  1.335735e+01  1.201466e+01  9.781481e+00  # Hw water
    133      45    1  -1.112800  2.361088e+01  1.128416e+01  2.023903e+01  # Ow water
    134      45    2   0.556400  2.320408e+01  1.092420e+01  2.102718e+01  # Hw water
    135      45    2   0.556400  2.424475e+01  1.192242e+01  2.056625e+01  # Hw water
    136      46    1  -1.112800  2.441763e+01  3.073926e+01  2.821093e+01  # Ow water
    137      46    2   0.556400  2.536884e+01  3.070392e+01  2.831179e+01  # Hw water
    138      46    2   0.556400  2.426944e+01  3.058708e+01  2.727760e+01  # Hw water
    139      47    1  -1.112800  3.073415e+01  1.245384e+01  1.675059e+01  # Ow water
    140      47    2   0.556400  3.004279e+01  1.182543e+01  1.654241e+01  # Hw water
    141      47    2   0.556400  3.071184e+01  1.308285e+01  1.602942e+01  # Hw water
    142      48    1  -1.112800  1.843346e+01  3.016887e+01  1.498797e+00  # Ow water
    143      48    2   0.556400  1.771646e+01  3.068836e+01  1.862495e+00  # Hw water
    144      48    2   0.556400  1.811312e+01  2.926721e+01  1.523536e+00  # Hw water
    145      49    1  -1.112800  1.118477e+01  1.004735e+01  2.504989e+01  # Ow water
    146      49    2   0.556400  1.086951e+01  1.090603e+01  2.533188e+01  # Hw water
    147      49    2   0.556400  1.194568e+01  9.876884e+00  2.560502e+01  # Hw water
    148      50    1  -1.112800  1.499258e+00  1.771251e+01  2.569495e+01  # Ow water
    149      50    2   0.556400  1.499470e+00  1.854465e+01  2.616800e+01  # Hw water
    150      50    2   0.556400  1.568747e+00  1.704722e+01  2.637963e+01  # Hw water
    151      51    1  -1.112800  1.855223e+01  2.558091e+01  2.666914e+01  # Ow water
    152      51    2   0.556400  1.946569e+01  2.529834e+01  2.662454e+01  # Hw water
    153      51    2   0.556400  1.840919e+01  2.578561e+01  2.759319e+01  # Hw water
    154      52    1  -1.112800  1.978799e+01  2.476854e+00  2.749564e+01  # Ow water
    155      52    2   0.556400  2.006652e+01  2.982531e+00  2.825915e+01  # Hw water
    156      52    2   0.556400  1.972696e+01  1.576080e+00  2.781362e+01  # Hw water
    157      53    1  -1.112800  8.677482e+00  3.281931e+00  9.646600e+00  # Ow water
    158      53    2   0.556400  8.427466e+00  2.833170e+00  8.838928e+00  # Hw water
    159      53    2   0.556400  9.333414e+00  3.922678e+00  9.371962e+00  # Hw water
    160      54    1  -1.112800  1.514569e+00  2.290968e+01  3.072660e+01  # Ow water
    161      54    2   0.556400  1.492566e+00  2.241987e+01  2.990450e+01  # Hw water
    162      54    2   0.556400  1.491603e+00  2.382848e+01  3.045922e+01  # Hw water
    163      55    1  -1.112800  1.621849e+01  1.092892e+01  7.367138e+00  # Ow water
    164      55    2   0.556400  1.565810e+01  1.019061e+01  7.606050e+00  # Hw water
    165      55    2   0.556400  1.693722e+01  1.053463e+01  6.872984e+00  # Hw water
    166      56    1  -1.112800  2.226544e+01  2.744478e+01  3.008010e+01  # Ow water
    167      56    2   0.556400  2.215200e+01  2.675080e+01  3.072952e+01  # Hw water
    168      56    2   0.556400  2.309303e+01  2.723536e+01  2.964714e+01  # Hw water
    169      57    1  -1.112800  1.630055e+01  1.708835e+01  3.052667e+01  # Ow water
    170      57    2   0.556400  1.633000e+01  1.615185e+01  3.072248e+01  # Hw water
    171      57    2   0.556400  1.599653e+01  1.713455e+01  2.962021e+01  # Hw water
    172      58    1  -1.112800  3.073036e+01  3.065011e+01  1.961037e+01  # Ow water
    173      58    2   0.556400  3.053635e+01  3.072380e+01  1.867594e+01  # Hw water
    174      58    2   0.556400  2.987808e+01  3.072709e+01  2.003923e+01  # Hw water
    175      59    1  -1.112800  3.040752e+01  1.500280e+00  1.470541e+01  # Ow water
    176      59    2   0.556400  3.072238e+01  2.328266e+00  1.434274e+01  # Hw water
    177      59    2   0.556400  3.072250e+01  1.498981e+00  1.560930e+01  # Hw water
    178      60    1  -1.112800  3.072175e+01  2.720518e+00  3.013041e+01  # Ow water
    179      60    2   0.556400  3.068081e+01  1.959266e+00  3.070924e+01  # Hw water
    180      60    2   0.556400  3.070237e+01  3.472961e+00  3.072175e+01  # Hw water
    181      61    1  -1.112800  1.823946e+01  2.046278e+01  2.018131e+01  # Ow water
    182      61    2   0.556400  1.837544e+01  2.023505e+01  2.110102e+01  # Hw water
    183      61    2   0.556400  1.884677e+01  1.989903e+01  1.970216e+01  # Hw water
    184      62    1  -1.112800  4.065284e+00  4.292420e+00  2.864315e+01  # Ow water
    185      62    2   0.556400  3.945041e+00  3.747730e+00  2.786528e+01  # Hw water
    186      62    2   0.556400  3.984691e+00  5.190539e+00  2.832204e+01  # Hw water
    187      63    1  -1.112800  2.662035e+00  3.641529e+00  8.456612e+00  # Ow water
    188      63    2   0.556400  2.900917e+00  4.380490e+00  7.897057e+00  # Hw water
    189      63    2   0.556400  1.819316e+00  3.343694e+00  8.114051e+00  # Hw water
    190      64    1  -1.112800  1.554823e+00  1.916206e+01  1.108056e+01  # Ow water
    191      64    2   0.556400  1.533416e+00  1.992765e+01  1.165470e+01  # Hw water
    192      64    2   0.556400  1.490945e+00  1.841448e+01  1.167494e+01  # Hw water
    193      65    1  -1.112800  3.013421e+01  3.072375e+01  7.662946e+00  # Ow water
    194      65    2   0.556400  3.070916e+01  3.072139e+01  8.428222e+00  # Hw water
    195      65    2   0.556400  3.073089e+01  3.072419e+01  6.914481e+00  # Hw water
    196      66    1  -1.112800  1.739406e+01  2.193290e+01  2.354018e+01  # Ow water
    197      66    2   0.556400  1.703211e+01  2.129887e+01  2.292113e+01  # Hw water
    198      66    2   0.556400  1.770944e+01  2.265097e+01  2.299141e+01  # Hw water
    199      67    1  -1.112800  2.847218e+01  7.970147e+00  8.963586e+00  # Ow water
    200      67    2   0.556400  2.824985e+01  7.579313e+00  9.808598e+00  # Hw water
    201      67    2   0.556400  2.837024e+01  8.911997e+00  9.100537e+00  # Hw water
    202      68    1  -1.112800  2.276333e+01  1.730649e+01  1.514546e+01  # Ow water
    203      68    2   0.556400  2.353792e+01  1.779675e+01  1.542093e+01  # Hw water
    204      68    2   0.556400  2.225163e+01  1.719611e+01  1.594684e+01  # Hw water
    205      69    1  -1.112800  2.039297e+01  1.968231e+01  3.069298e+01  # Ow water
    206      69    2   0.556400  2.108945e+01  1.936378e+01  3.011880e+01  # Hw water
    207      69    2   0.556400  2.011260e+01  2.050676e+01  3.029561e+01  # Hw water
    208      70    1  -1.112800  2.393484e+01  1.417348e+01  1.274414e+01  # Ow water
    209      70    2   0.556400  2.420326e+01  1.495897e+01  1.322079e+01  # Hw water
    210      70    2   0.556400  2.411867e+01  1.437497e+01  1.182663e+01  # Hw water
    211      71    1  -1.112800  1.219966e+01  1.434834e+01  6.130347e+00  # Ow water
    212      71    2   0.556400  1.236053e+01  1.354640e+01  5.633103e+00  # Hw water
    213      71    2   0.556400  1.124699e+01  1.444119e+01  6.134387e+00  # Hw water
    214      72    1  -1.112800  1.696181e+01  2.934622e+01  9.393240e+00  # Ow water
    215      72    2   0.556400  1.656293e+01  2.863624e+01  9.896277e+00  # Hw water
    216      72    2   0.556400  1.748602e+01  2.890275e+01  8.726329e+00  # Hw water
    217      73    1  -1.112800  1.542319e+01  1.689447e+00  2.172865e+01  # Ow water
    218      73    2   0.556400  1.502615e+01  2.414457e+00  2.221130e+01  # Hw water
    219      73    2   0.556400  1.480064e+01  1.498763e+00  2.102701e+01  # Hw water
    220      74    1  -1.112800  1.054064e+01  2.373647e+01  2.668283e+01  # Ow water
    221      74    2   0.556400  1.074994e+01  2.459271e+01  2.630965e+01  # Hw water
    222      74    2   0.556400  1.088914e+01  2.310759e+01  2.605094e+01  # Hw water
    223      75    1  -1.112800  1.846297e+01  5.709360e+00  6.299161e+00  # Ow water
    224      75    2   0.556400  1.817709e+01  6.351843e+00  5.649765e+00  # Hw water
    225      75    2   0.556400  1.770186e+01  5.143379e+00  6.428012e+00  # Hw water
    226      76    1  -1.112800  2.263212e+01  2.449109e+01  1.596825e+01  # Ow water
    227      76    2   0.556400  2.271297e+01  2.535630e+01  1.556688e+01  # Hw water
    228      76    2   0.556400  2.234151e+01  2.392209e+01  1.525550e+01  # Hw water
    229      77    1  -1.112800  1.357288e+01  2.413340e+01  3.072536e+01  # Ow water
    230      77    2   0.556400  1.372890e+01  2.505237e+01  3.050769e+01  # Hw water
    231      77    2   0.556400  1.356800e+01  2.368406e+01  2.988020e+01  # Hw water
    232      78    1  -1.112800  3.157063e+00  1.323672e+01  4.613879e+00  # Ow water
    233      78    2   0.556400  3.847243e+00  1.261013e+01  4.831291e+00  # Hw water
    234      78    2   0.556400  3.621802e+00  1.398586e+01  4.241016e+00  # Hw water
    235      79    1  -1.112800  2.826351e+01  2.651134e+01  1.634697e+01  # Ow water
    236      79    2   0.556400  2.775883e+01  2.569847e+01  1.637494e+01  # Hw water
    237      79    2   0.556400  2.794158e+01  2.696706e+01  1.556922e+01  # Hw water
    238      80    1  -1.112800  7.332754e+00  2.388367e+01  2.138938e+01  # Ow water
    239      80    2   0.556400  6.680629e+00  2.409510e+01  2.072135e+01  # Hw water
    240      80    2   0.556400  7.584854e+00  2.297968e+01  2.120105e+01  # Hw water
    241      81    1  -1.112800  3.864894e+00  3.292239e+00  1.446138e+01  # Ow water
    242      81    2   0.556400  3.927219e+00  3.801632e+00  1.526938e+01  # Hw water
    243      81    2   0.556400  3.097668e+00  3.647262e+00  1.401243e+01  # Hw water
    244      82    1  -1.112800  8.965598e+00  1.210580e+01  2.798350e+01  # Ow water
    245      82    2   0.556400  9.516128e+00  1.185862e+01  2.872650e+01  # Hw water
    246      82    2   0.556400  8.298402e+00  1.267989e+01  2.835966e+01  # Hw water
    247      83    1  -1.112800  7.102903e+00  8.197341e+00  1.170502e+01  # Ow water
    248      83    2   0.556400  6.514491e+00  7.567506e+00  1.128872e+01  # Hw water
    249      83    2   0.556400  7.442184e+00  8.723628e+00  1.098105e+01  # Hw water
    250      84    1  -1.112800  1.115794e+01  1.739914e+01  2.161777e+01  # Ow water
    251      84    2   0.556400  1.183529e+01  1.713493e+01  2.224036e+01  # Hw water
    252      84    2   0.556400  1.048524e+01  1.781489e+01  2.215708e+01  # Hw water
    253      85    1  -1.112800  3.056609e+01  3.022148e+01  2.979087e+01  # Ow water
    254      85    2   0.556400  2.977004e+01  3.073045e+01  2.963766e+01  # Hw water
    255      85    2   0.556400  3.072858e+01  3.030707e+01  3.073029e+01  # Hw water
    256      86    1  -1.112800  1.740812e+01  1.464283e+01  1.626961e+01  # Ow water
    257      86    2   0.556400  1.780081e+01  1.464252e+01  1.714255e+01  # Hw water
    258      86    2   0.556400  1.678531e+01  1.536950e+01  1.628689e+01  # Hw water
    259      87    1  -1.112800  1.498756e+00  1.987582e+01  2.270829e+01  # Ow water
    260      87    2   0.556400  2.372254e+00  2.026192e+01  2.277275e+01  # Hw water
    261      87    2   0.556400  1.499965e+00  1.941852e+01  2.186739e+01  # Hw water
    262      88    1  -1.112800  1.982143e+01  2.268344e+01  2.562765e+00  # Ow water
    263      88    2   0.556400  2.060321e+01  2.261205e+01  3.110447e+00  # Hw water
    264      88    2   0.556400  2.014637e+01  2.258980e+01  1.667292e+00  # Hw water
    265      89    1  -1.112800  2.654725e+01  5.935448e+00  1.081095e+01  # Ow water
    266      89    2   0.556400  2.656743e+01  5.205488e+00  1.142981e+01  # Hw water
    267      89    2   0.556400  2.645280e+01  6.713451e+00  1.136052e+01  # Hw water
    268      90    1  -1.112800  1.612712e+01  2.190861e+00  5.478444e+00  # Ow water
    269      90    2   0.556400  1.576061e+01  1.494788e+00  6.023774e+00  # Hw water
    270      90    2   0.556400  1.647297e+01  2.828251e+00  6.103221e+00  # Hw water
    271      91    1  -1.112800  1.425190e+01  2.544686e+01  4.372038e+00  # Ow water
    272      91    2   0.556400  1.488769e+01  2.597051e+01  3.884394e+00  # Hw water
    273      91    2   0.556400  1.388470e+01  2.484828e+01  3.721585e+00  # Hw water
    274      92    1  -1.112800  7.356666e+00  1.771451e+01  3.051921e+01  # Ow water
    275      92    2   0.556400  8.110675e+00  1.716901e+01  3.029532e+01  # Hw water
    276      92    2   0.556400  7.732086e+00  1.857139e+01  3.072180e+01  # Hw water
    277      93    1  -1.112800  4.691900e+00  1.600908e+01  2.736888e+01  # Ow water
    278      93    2   0.556400  5.035616e+00  1.639798e+01  2.656462e+01  # Hw water
    279      93    2   0.556400  5.025897e+00  1.657034e+01  2.806864e+01  # Hw water
    280      94    1  -1.112800  2.780743e+01  3.072452e+01  9.438843e+00  # Ow water
    281      94    2   0.556400  2.831145e+01  2.995011e+01  9.188884e+00  # Hw water
    282      94    2   0.556400  2.702489e+01  3.068941e+01  8.888722e+00  # Hw water
    283      95    1  -1.112800  1.731776e+01  1.103352e+01  1.014465e+01  # Ow water
    284      95    2   0.556400  1.730506e+01  1.192031e+01  9.784559e+00  # Hw water
    285      95    2   0.556400  1.645897e+01  1.067272e+01  9.924337e+00  # Hw water
    286      96    1  -1.112800  3.054258e+01  3.012142e+01  2.653415e+01  # Ow water
    287      96    2   0.556400  3.073040e+01  3.072858e+01  2.581840e+01  # Hw water
    288      96    2   0.556400  3.072236e+01  3.062407e+01  2.732867e+01  # Hw water
    289      97    1  -1.112800  3.072820e+01  2.155850e+01  2.078393e+01  # Ow water
    290      97    2   0.556400  3.052834e+01  2.182625e+01  1.988694e+01  # Hw water
    291      97    2   0.556400  3.067891e+01  2.060274e+01  2.076572e+01  # Hw water
    292      98    1  -1.112800  2.535626e+01  4.490027e+00  9.155256e+00  # Ow water
    293      98    2   0.556400  2.615917e+01  3.985479e+00  9.285610e+00  # Hw water
    294      98    2   0.556400  2.519807e+01  4.449900e+00  8.212073e+00  # Hw water
    295      99    1  -1.112800  7.260016e+00  1.643354e+01  1.563502e+01  # Ow water
    296      99    2   0.556400  7.763259e+00  1.633521e+01  1.644329e+01  # Hw water
    297      99    2   0.556400  7.082487e+00  1.737225e+01  1.557554e+01  # Hw water
    298     100    1  -1.112800  1.618699e+00  2.820699e+01  2.619909e+01  # Ow water
    299     100    2   0.556400  1.499227e+00  2.760147e+01  2.546746e+01  # Hw water
    300     100    2   0.556400  2.494247e+00  2.801079e+01  2.653249e+01  # Hw water
    301     101    1  -1.112800  6.090221e+00  1.086989e+01  5.349382e+00  # Ow water
    302     101    2   0.556400  6.227386e+00  1.069027e+01  4.419246e+00  # Hw water
    303     101    2   0.556400  6.562553e+00  1.017052e+01  5.801060e+00  # Hw water
    304     102    1  -1.112800  3.357398e+00  1.894494e+01  2.779198e+01  # Ow water
    305     102    2   0.556400  2.904519e+00  1.822416e+01  2.822971e+01  # Hw water
    306     102    2   0.556400  3.830434e+00  1.852879e+01  2.707136e+01  # Hw water
    307     103    1  -1.112800  2.111184e+01  1.279853e+01  2.265553e+01  # Ow water
    308     103    2   0.556400  2.172149e+01  1.272760e+01  2.192101e+01  # Hw water
    309     103    2   0.556400  2.115485e+01  1.194488e+01  2.308641e+01  # Hw water
    310     104    1  -1.112800  2.855369e+01  3.979071e+00  7.400446e+00  # Ow water
    311     104    2   0.556400  2.801060e+01  3.249088e+00  7.697791e+00  # Hw water
    312     104    2   0.556400  2.799615e+01  4.750339e+00  7.503040e+00  # Hw water
    313     105    1  -1.112800  1.773940e+01  5.379980e+00  1.901415e+01  # Ow water
    314     105    2   0.556400  1.691091e+01  5.278499e+00  1.854561e+01  # Hw water
    315     105    2   0.556400  1.751386e+01  5.888511e+00  1.979309e+01  # Hw water
    316     106    1  -1.112800  2.752751e+01  1.301835e+01  1.496201e+00  # Ow water
    317     106    2   0.556400  2.711834e+01  1.345923e+01  2.240806e+00  # Hw water
    318     106    2   0.556400  2.732650e+01  1.209154e+01  1.625999e+00  # Hw water
    319     107    1  -1.112800  1.028401e+01  4.012826e+00  1.168239e+01  # Ow water
    320     107    2   0.556400  9.579273e+00  4.507413e+00  1.210068e+01  # Hw water
    321     107    2   0.556400  1.105946e+01  4.208494e+00  1.220834e+01  # Hw water
    322     108    1  -1.112800  2.733963e+01  2.386995e+01  1.802722e+01  # Ow water
    323     108    2   0.556400  2.640606e+01  2.374974e+01  1.820106e+01  # Hw water
    324     108    2   0.556400  2.775505e+01  2.379727e+01  1.888651e+01  # Hw water
    325     109    1  -1.112800  2.429571e+00  2.392270e+01  1.368692e+01  # Ow water
    326     109    2   0.556400  1.498804e+00  2.395515e+01  1.346590e+01  # Hw water
    327     109    2   0.556400  2.447128e+00  2.384258e+01  1.464059e+01  # Hw water
    328     110    1  -1.112800  1.977876e+01  1.059539e+01  2.544613e+01  # Ow water
    329     110    2   0.556400  2.028165e+01  1.140249e+01  2.555532e+01  # Hw water
    330     110    2   0.556400  1.968573e+01  1.049692e+01  2.449856e+01  # Hw water
    331     111    1  -1.112800  2.319468e+01  8.547623e+00  5.922605e+00  # Ow water
    332     111    2   0.556400  2.251405e+01  7.910828e+00  6.140480e+00  # Hw water
    333     111    2   0.556400  2.401247e+01  8.122828e+00  6.181422e+00  # Hw water
    334     112    1  -1.112800  6.505597e+00  2.729416e+01  4.284885e+00  # Ow water
    335     112    2   0.556400  6.088213e+00  2.647504e+01  4.018309e+00  # Hw water
    336     112    2   0.556400  6.187971e+00  2.794136e+01  3.655231e+00  # Hw water
    337     113    1  -1.112800  1.499113e+00  1.598175e+01  2.058386e+01  # Ow water
    338     113    2   0.556400  2.226518e+00  1.553548e+01  2.015032e+01  # Hw water
    339     113    2   0.556400  1.813212e+00  1.687553e+01  2.072070e+01  # Hw water
    340     114    1  -1.112800  2.821586e+01  2.001259e+00  2.974062e+01  # Ow water
    341     114    2   0.556400  2.877443e+01  1.499862e+00  2.914664e+01  # Hw water
    342     114    2   0.556400  2.822731e+01  1.503611e+00  3.055821e+01  # Hw water
    343     115    1  -1.112800  2.585104e+01  6.836108e+00  1.529755e+00  # Ow water
    344     115    2   0.556400  2.510307e+01  7.432344e+00  1.494173e+00  # Hw water
    345     115    2   0.556400  2.595437e+01  6.635975e+00  2.460076e+00  # Hw water
    346     116    1  -1.112800  2.007988e+01  2.759749e+01  6.222104e+00  # Ow water