3324
 Atoms. Timestep: 0
Ow 6.69207 12.0114 29.1202
H 6.6515 11.0964 28.8421
H 7.53769 12.0908 29.5617
Ow 18.2666 9.29122 6.95257
H 18.3612 9.95387 6.26829
H 17.5935 9.64256 7.53546
Ow 1.96288 7.13177 15.4899
H 1.96875 6.18143 15.3754
H 2.74176 7.31497 16.0154
Ow 21.1845 14.6015 14.4832
H 22.1058 14.8252 14.6152
H 20.8387 15.3151 13.9469
Ow 0.327558 7.36569 31.8989
H 31.7504 7.82783 31.0925
H 0.97463 6.71524 31.6249
Ow 30.8371 19.0258 11.8776
H 31.2322 19.8961 11.9306
H 31.4547 18.5132 11.356
Ow 23.2211 8.31232 28.7293
H 23.5235 8.87121 29.4452
H 23.3748 8.83023 27.9391
Ow 0.944403 0.292104 3.65254
H 1.04164 1.24302 3.59136
H 1.46402 31.7008 4.4182
Ow 1.29269 12.2779 23.6078
H 1.34778 12.6822 22.7419
H 0.423694 11.8771 23.6307
Ow 4.36241 8.67856 27.4943
H 3.47861 8.42122 27.757
H 4.28476 9.6049 27.266
Ow 20.0546 29.4664 16.8529
H 20.6473 29.5991 17.5928
H 19.2163 29.2387 17.2548
Ow 6.28511 15.8111 3.91723
H 6.77094 15.5065 3.15076
H 5.59781 15.1565 4.04144
Ow 31.1978 16.3215 28.6667
H 31.3432 15.509 29.1509
H 30.7573 16.0456 27.8621
Ow 2.43232 15.5295 9.67998
H 1.9234 16.2128 10.1161
H 2.7065 14.9462 10.3877
Ow 25.7136 10.9061 3.39466
H 25.5683 10.1299 2.85368
H 26.3447 10.6228 4.05623
Ow 8.07623 29.8771 25.7938
H 7.29399 29.8006 26.3402
H 8.43105 30.7414 26.0023
Ow 26.8504 22.875 8.64664
H 26.1399 23.5073 8.75401
H 26.4374 22.1181 8.23108
Ow 7.87487 6.35113 4.84728
H 7.92565 5.82496 4.04925
H 7.30405 7.08382 4.61574
Ow 20.3441 27.6485 9.48703
H 20.651 28.1301 8.71884
H 19.4557 27.3743 9.25921
Ow 30.2866 15.4047 9.83353
H 30.5789 15.2905 10.7378
H 30.8738 14.8504 9.31961
Ow 10.6769 12.6216 6.25428
H 9.98049 12.9938 6.7954
H 11.4452 13.1583 6.44943
Ow 26.7535 12.5042 0.434855
H 26.8581 11.5694 0.612848
H 26.2346 12.8317 1.16941
Ow 4.26493 7.42479 21.1222
H 3.7418 7.75282 20.3908
H 3.70688 7.54698 21.8903
Ow 22.2894 19.7465 28.8814
H 21.7575 20.2615 29.4882
H 22.5841 20.378 28.2252
Ow 9.22853 20.3257 1.79586
H 9.98387 20.698 2.251
H 9.59369 19.6196 1.2626
Ow 16.4455 17.1476 3.84845
H 15.7672 17.6926 3.45003
H 17.2692 17.5261 3.54097
Ow 24.8193 25.3905 2.1396
H 25.3445 25.0752 1.404
H 24.8238 26.3432 2.04676
Ow 24.9208 4.93554 15.6207
H 25.0769 5.87727 15.5494
H 24.0217 4.86486 15.9413
Ow 14.6793 27.6312 14.8083
H 14.2327 27.0323 15.4068
H 14.4921 27.2832 13.9365
Ow 14.483 17.1709 6.1909
H 13.806 17.7278 5.80647
H 14.0674 16.3129 6.27719
Ow 18.0257 3.98368 20.2672
H 17.6624 4.73321 19.7955
H 18.9061 3.87706 19.9068
Ow 10.4824 29.2871 8.61603
H 10.9392 28.756 9.2684
H 10.9564 29.1246 7.80047
Ow 15.2923 31.7829 30.4532
H 16.1005 0.48173 30.0809
H 14.9961 0.801541 31.0657
Ow 30.1832 10.0718 10.3701
H 29.6863 9.75652 9.61508
H 29.6884 10.8286 10.684
Ow 9.79452 1.20708 21.6128
H 10.6481 1.53358 21.8977
H 9.98707 0.671868 20.8429
Ow 26.3914 22.4772 21.4677
H 26.9439 21.8737 21.9645
H 25.4985 22.2626 21.7374
Ow 10.3728 23.1611 15.7565
H 10.8653 23.1009 16.5752
H 11.0343 23.355 15.0923
Ow 6.90856 5.10952 0.527204
H 6.1774 4.64082 31.78
H 6.51178 5.89417 0.905588
Ow 12.4024 13.6667 14.3787
H 12.742 13.7476 13.4874
H 11.5322 14.0637 14.3409
Ow 17.5959 2.36321 12.9522
H 17.0681 1.64756 12.5979
H 17.4945 3.0729 12.3179
Ow 23.1958 2.32693 26.211
H 24.0319 2.77615 26.087
H 22.5405 3.02338 26.1683
Ow 12.0996 13.6175 24.6182
H 12.153 12.9857 23.9009
H 12.5836 13.2081 25.3354
Ow 6.14197 18.0235 0.417619
H 5.26868 17.9143 0.794078
H 6.48812 17.1335 0.352071
Ow 12.7559 10.7782 9.34067
H 13.5327 11.3139 9.17983
H 12.1489 11.3649 9.79188
Ow 23.8824 10.5084 20.8632
H 23.2517 10.6876 20.1658
H 24.0609 11.365 21.2513
Ow 23.5191 29.214 28.2752
H 24.3899 29.4593 28.5877
H 23.2172 29.977 27.7823
Ow 31.2564 12.4575 18.8846
H 30.8004 12.3862 19.7232
H 30.6455 12.9292 18.3185
Ow 19.9277 31.2342 31.8608
H 19.4485 31.8543 0.756703
H 20.1747 30.5267 0.803646
Ow 11.4637 9.89413 24.6332
H 12.1708 10.4583 24.3201
H 11.7446 9.61915 25.506
Ow 1.55833 18.9764 25.8794
H 0.903438 18.3742 25.5263
H 2.28902 18.9247 25.2632
Ow 16.3595 23.1494 29.8913
H 16.6583 22.7197 29.0898
H 16.0826 24.0204 29.6071
Ow 15.591 1.85354 27.3258
H 15.8302 2.45799 26.6232
H 16.1553 2.10145 28.0582
Ow 8.39341 28.4409 10.1194
H 9.15551 28.584 9.55814
H 7.71301 28.1255 9.52451
Ow 1.25587 20.8174 30.0107
H 0.523836 21.2358 29.5576
H 1.39653 19.999 29.5345
Ow 14.3556 9.42017 11.4869
H 14.7059 8.60252 11.1333
H 14.1687 9.95485 10.7153
Ow 21.2426 27.9592 29.7844
H 21.2563 27.2732 30.4519
H 21.0432 27.4976 28.9699
Ow 17.1924 16.1281 1.2787
H 17.0355 16.4542 2.16535
H 16.3984 16.356 0.795465
Ow 28.0638 3.08459 19.5148
H 27.6388 2.22714 19.4921
H 27.5419 3.62689 18.9233
Ow 1.91866 30.9358 11.0046
H 2.70565 30.4031 10.8901
H 1.40023 30.7704 10.2172
Ow 31.5422 3.45806 0.529729
H 31.2195 2.91633 31.4639
H 30.9451 4.2058 0.552921
Ow 18.3736 21.0383 17.9347
H 18.6901 20.6563 18.7533
H 17.5042 20.6569 17.8123
Ow 5.81818 2.09048 29.1059
H 4.92337 1.75285 29.0658
H 5.73657 2.93451 29.55
Ow 2.14074 5.38176 10.4435
H 1.64016 5.36026 9.62789
H 1.47663 5.37874 11.1329
Ow 0.964495 21.4309 12.5544
H 1.69528 20.8942 12.2474
H 0.854741 22.0974 11.8761
Ow 0.791227 30.7694 8.52598
H 31.8014 31.4669 8.4073
H 1.16082 30.6316 7.65373
Ow 13.164 18.989 23.1423
H 13.431 18.9172 22.2259
H 12.7599 19.8543 23.2074
Ow 29.2012 5.62391 10.6646
H 29.3434 6.42908 11.1624
H 28.8354 5.00964 11.3011
Ow 25.011 16.9297 16.1149
H 24.4411 16.1718 16.247
H 24.6738 17.3479 15.3225
Ow 20.0508 23.2223 1.57059
H 19.7334 24.0087 2.01457
H 19.3426 22.5865 1.67287
Ow 23.6996 14.0476 11.8412
H 23.4978 14.9483 12.0946
H 23.7985 13.5812 12.6713
Ow 11.4699 15.1976 10.1564
H 12.3004 15.6656 10.2437
H 10.8179 15.7955 10.522
Ow 17.9794 30.2165 7.55905
H 18.7937 30.6352 7.83797
H 18.1693 29.2788 7.58863
Ow 17.0102 4.81565 22.7727
H 16.6202 5.63442 22.4665
H 17.3795 4.41646 21.985
Ow 7.41711 22.5992 28.0137
H 8.05883 22.9204 27.3802
H 7.33852 23.3056 28.6549
Ow 18.5274 5.9046 5.72181
H 17.8024 6.12975 6.30488
H 18.7534 5.00452 5.95643
Ow 24.5348 25.9792 18.7912
H 24.8424 25.903 19.6945
H 25.0553 26.6915 18.4197
Ow 13.0237 23.0531 29.4497
H 12.3891 22.4264 29.1021
H 13.1734 23.667 28.7307
Ow 1.86423 12.5245 5.98819
H 1.33812 13.2535 5.65949
H 1.70035 11.8123 5.36992
Ow 30.3469 29.2707 16.9474
H 29.7409 28.7035 16.4706
H 29.7944 29.7414 17.5714
Ow 6.36044 22.514 20.883
H 5.64497 22.6197 20.2559
H 7.06005 22.0963 20.3807
Ow 2.3229 4.02904 15.4858
H 3.02948 4.34473 14.9224
H 2.67134 3.23106 15.8834
Ow 8.54908 12.2475 26.7024
H 8.09879 12.1683 27.5434
H 9.4797 12.2254 26.9254
Ow 12.6168 7.74833 8.68747
H 12.2763 7.42635 9.52215
H 11.8767 7.68117 8.0845
Ow 11.8637 15.5604 17.7159
H 12.4173 16.3276 17.5692
H 11.1238 15.681 17.1207
Ow 26.0527 29.6852 29.196
H 26.1171 30.3592 29.8726
H 26.5542 28.9476 29.5435
Ow 18.6004 16.7107 16.5797
H 19.3994 17.0412 16.169
H 17.9416 17.3805 16.3962
Ow 3.43868 20.4573 20.5161
H 2.70949 20.6403 21.1086
H 3.18166 19.6562 20.0595
Ow 22.6556 24.0956 3.00572
H 22.22 24.6771 3.62891
H 23.516 24.4921 2.86861
Ow 29.2193 7.93793 12.0468
H 28.4648 8.29398 12.5162
H 29.5578 8.67722 11.5417
Ow 16.8198 1.58108 8.08082
H 17.1897 0.871326 8.60545
H 17.5368 1.85588 7.5091
Ow 14.8815 26.8842 2.13023
H 14.0076 26.5331 2.30162
H 15.2569 27.0282 2.99892
Ow 10.6024 15.7122 31.784
H 11.3899 15.9513 0.61877
H 10.1161 16.532 31.6962
Ow 5.08911 14.0718 27.3539
H 5.50809 13.6746 28.1176
H 5.79584 14.1685 26.7156
Ow 30.0618 28.8501 9.29886
H 30.6814 29.5772 9.23765
H 30.5152 28.1132 8.88937
Ow 15.2786 13.9255 11.547
H 15.0298 13.7452 10.6404
H 15.5074 13.0689 11.9079
Ow 29.2063 30.8442 24.9905
H 28.429 30.8257 25.5488
H 29.9418 30.8485 25.6032
Ow 27.6337 21.58 18.5321
H 26.9897 21.1208 17.993
H 28.0627 20.8879 19.0353
Ow 27.3873 6.73231 8.72721
H 27.469 6.13215 7.98658
H 27.83 6.28533 9.44864
Ow 4.58474 17.7128 12.3212
H 4.45865 17.1057 13.0506
H 5.51465 17.6396 12.1062
Ow 0.660943 24.7067 26.9027
H 1.50568 25.1245 26.735
H 0.830621 23.7706 26.7929
Ow 4.30554 10.7728 4.86863
H 4.6515 9.94896 4.5253
H 4.87579 10.9829 5.60821
Ow 3.28891 15.8609 25.952
H 2.43663 15.4389 26.0611
H 3.87227 15.3783 26.5378
Ow 20.5011 14.8195 23.5654
H 21.3209 15.2617 23.7862
H 20.5555 13.9753 24.0129
Ow 30.3768 1.0233 8.30863
H 30.047 0.767147 7.44748
H 29.6163 1.39563 8.75509
Ow 16.2543 6.09147 19.1142
H 15.7541 6.42797 19.8578
H 15.8571 6.50882 18.3495
Ow 29.9337 13.7018 29.4649
H 29.8529 12.7968 29.1638
H 29.1262 14.1248 29.1728
Ow 8.22726 4.57715 12.0255
H 7.71663 5.11994 11.4247
H 7.62845 3.87642 12.2837
Ow 29.628 28.2 23.8011
H 29.42 29.0872 24.0929
H 30.0666 27.7968 24.55
Ow 2.12249 24.5536 14.8597
H 1.68873 23.7025 14.9216
H 1.41561 25.1917 14.9571
Ow 18.2729 9.2112 28.9385
H 18.8073 9.77923 29.4934
H 18.3435 8.34603 29.342
Ow 20.8092 5.59033 2.77808
H 21.5381 6.20968 2.74047
H 20.9607 5.08973 3.57984
Ow 7.02693 23.7821 3.62893
H 7.60034 23.4728 4.33026
H 7.04333 24.7356 3.70918
Ow 1.25532 14.7379 21.5532
H 1.18408 15.4674 20.9375
H 0.351085 14.5417 21.7986
Ow 28.2118 2.17561 30.4011
H 27.5782 1.5117 30.6732
H 28.0012 2.34634 29.483
Ow 28.4819 8.0752 31.6541
H 27.6219 8.29094 31.2917
H 28.3222 7.31665 0.561146
Ow 20.5037 30.9924 8.22959
H 20.8056 31.6265 7.58004
H 20.8468 30.1526 7.92323
Ow 3.10693 12.265 20.6776
H 3.35743 11.7511 19.9098
H 2.97121 13.1503 20.3399
Ow 22.3321 12.7522 30.8046
H 22.3793 13.522 31.3717
H 21.4539 12.4003 30.9505
Ow 23.5891 21.1851 14.7646
H 23.2023 20.4821 14.2426
H 24.5239 20.9803 14.7878
Ow 4.28049 7.31473 31.2072
H 3.85384 6.46107 31.1329
H 4.29052 7.49754 0.492541
Ow 11.2909 17.0265 21.2262
H 11.2164 17.2881 22.1439
H 12.1071 17.4277 20.9276
Ow 14.6438 30.3059 13.2258
H 14.8988 31.1017 12.759
H 13.6907 30.3626 13.294
Ow 1.65188 7.99077 28.0562
H 1.42645 8.52549 27.2945
H 1.40956 8.53052 28.8084
Ow 8.17581 30.8252 11.3714
H 9.10827 31.0376 11.4125
H 8.12849 30.0625 10.7949
Ow 31.2096 3.63304 18.6018
H 31.7198 4.43304 18.4758
H 31.8248 2.92403 18.4146
Ow 1.93811 17.6245 16.269
H 2.44736 17.7506 17.0697
H 1.3629 16.8848 16.4645
Ow 26.6535 28.7452 4.56646
H 26.4998 28.5375 3.64477
H 25.7774 28.8368 4.94115
Ow 3.51769 17.0454 29.4234
H 3.47614 16.1066 29.6059
H 2.6734 17.2493 29.021
Ow 2.10834 29.3755 28.6107
H 2.46607 29.9279 29.3059
H 2.7711 28.6977 28.4778
Ow 13.9297 18.8354 11.9901
H 13.1857 18.906 11.392
H 13.541 18.5853 12.8283
Ow 14.8281 27.298 7.96906
H 15.0196 26.3819 7.7681
H 14.5066 27.6625 7.14438
Ow 24.8307 19.0146 31.6685
H 24.7259 19.9297 31.929
H 24.0442 18.5797 0.344315
Ow 8.03993 10.0936 9.98399
H 7.66703 10.665 9.31267
H 8.76505 10.598 10.3528
Ow 18.227 30.5745 22.1427
H 17.518 30.5221 21.5017
H 19.014 30.7236 21.6185
Ow 10.7299 25.6982 8.21842
H 11.132 25.0336 7.6588
H 10.2948 25.1986 8.90931
Ow 4.68499 3.15797 22.7752
H 5.40022 3.38176 23.3708
H 4.55908 2.21659 22.8945
Ow 28.7029 24.5713 30.7184
H 28.8985 25.0936 31.4962
H 29.5601 24.3015 30.3886
Ow 24.2776 17.3755 20.7541
H 24.1663 17.2638 21.6982
H 23.4281 17.6933 20.4481
Ow 2.70217 16.418 6.17351
H 2.94498 16.8558 5.35763
H 3.51252 16.3921 6.68237
Ow 18.8202 4.51134 27.3891
H 19.0143 3.70374 27.8649
H 18.0632 4.29348 26.8453
Ow 17.2364 18.3532 6.45865
H 16.729 19.1492 6.29967
H 18.1326 18.5876 6.21735
Ow 17.7162 27.4274 7.85194
H 17.9828 26.5465 7.58877
H 16.7661 27.4354 7.73617
Ow 11.7248 9.15695 12.2722
H 11.3208 8.36526 11.9168
H 12.5512 9.23906 11.7961
Ow 24.5183 28.9186 14.9741
H 24.3953 29.3298 15.8298
H 25.4305 28.6283 14.9762
Ow 2.51875 25.8766 12.3057
H 2.3348 25.2258 12.9831
H 1.69937 25.9522 11.8166
Ow 2.0062 27.6175 19.1622
H 2.3971 26.78 19.4114
H 1.07286 27.5109 19.3461
Ow 15.2784 6.88033 13.8977
H 16.0654 6.85244 13.3537
H 14.7743 6.11179 13.6301
Ow 25.7284 3.83594 30.2962
H 25.1589 4.58429 30.1172
H 25.277 3.09068 29.8998
Ow 27.4316 27.8734 30.6802
H 27.6915 27.4525 31.4996
H 27.5972 27.2125 30.0078
Ow 25.2767 7.38777 23.4121
H 25.5798 7.92778 24.1418
H 24.5013 7.84259 23.0833
Ow 1.53311 22.9853 31.6635
H 1.53162 23.6919 31.0179
H 1.39222 22.1902 31.1495
Ow 22.0518 6.94438 25.2482
H 21.6692 7.32502 26.0387
H 22.8208 7.4856 25.0691
Ow 8.90863 19.6653 23.1668
H 8.75064 20.5151 23.578
H 9.51307 19.8545 22.4491
Ow 3.74874 24.7736 8.7543
H 4.16001 23.924 8.91705
H 3.41231 24.7098 7.86073
Ow 14.1569 26.5684 12.4594
H 13.4075 26.0047 12.2669
H 14.2985 27.0632 11.6523
Ow 6.56467 12.9718 20.5476
H 5.83691 12.6316 20.0272
H 6.29159 13.8559 20.7928
Ow 14.0826 15.4636 23.7672
H 13.3118 15.0677 24.1735
H 14.7193 15.5349 24.4783
Ow 18.7485 18.3008 3.01275
H 18.5293 19.1055 2.54284
H 19.4277 18.5633 3.63418
Ow 28.466 31.1786 1.22965
H 29.1579 30.9656 0.603384
H 28.7291 0.366228 1.60178
Ow 27.3496 16.6433 19.1676
H 26.9024 17.1491 18.4891
H 27.2507 17.1677 19.9623
Ow 21.6436 22.8701 30.942
H 21.1159 22.7074 30.1601
H 21.0181 23.1922 31.5909
Ow 25.4687 18.5221 18.3067
H 25.0121 18.0254 17.6276
H 24.9187 18.4271 19.0843
Ow 16.5554 7.8783 0.55289
H 16.9621 8.7446 0.582052
H 15.6264 8.05457 0.403693
Ow 30.4982 11.1525 4.1878
H 30.3673 10.7187 3.34461
H 31.3873 10.9102 4.4469
Ow 16.8215 30.3747 15.181
H 17.0005 30.2572 16.1139
H 16.3456 31.2037 15.1304
Ow 27.4773 31.0146 5.96381
H 27.2927 30.4875 5.1864
H 28.3961 31.2665 5.87031
Ow 11.0996 27.5439 13.6971
H 10.4578 27.1962 13.0777
H 10.6169 28.2001 14.1997
Ow 27.1691 14.7513 23.2905
H 26.3979 15.2399 23.5781
H 27.9102 15.2409 23.6476
Ow 10.7385 0.713306 24.7505
H 11.546 1.18359 24.9581
H 11.0014 31.7143 24.1017
Ow 29.807 14.5648 0.716185
H 28.8956 14.8289 0.842139
H 29.8201 14.1537 31.5061
Ow 8.11958 4.97031 22.9311
H 7.82072 4.06334 22.8649
H 8.19482 5.13021 23.8718
Ow 1.53685 18.3258 28.4622
H 1.80536 18.732 27.638
H 0.80621 17.7559 28.2221
Ow 21.3196 21.2765 24.6746
H 21.654 22.094 24.3056
H 20.7584 20.9151 23.988
Ow 2.03865 12.2764 1.30898
H 1.55243 11.4608 1.43048
H 2.94321 12.0512 1.52658
Ow 26.2449 19.9668 26.5768
H 27.008 20.4945 26.3413
H 25.4944 20.497 26.3087
Ow 22.1146 23.43 13.9385
H 21.3689 22.8426 13.8154
H 22.8244 22.8586 14.2317
Ow 21.8006 25.4956 10.6195
H 21.9951 25.7354 9.71342
H 22.0426 24.5715 10.6804
Ow 15.9605 24.5608 10.9953
H 15.2749 24.2392 10.4098
H 16.5917 23.8424 11.0432
Ow 25.1137 13.5749 2.31773
H 24.213 13.5353 1.99616
H 25.2539 12.7292 2.74357
Ow 4.44091 6.55604 25.5321
H 4.19479 6.85876 26.4062
H 5.37086 6.34149 25.6053
Ow 26.2571 2.13465 2.94106
H 25.5736 1.57124 3.30389
H 26.1116 2.98545 3.35489
Ow 8.66476 20.806 9.82502
H 7.87475 20.3605 9.51897
H 9.38291 20.3491 9.38714
Ow 27.9469 25.2573 11.2006
H 27.2714 24.7201 11.6146
H 28.3498 25.7364 11.9247
Ow 0.39378 16.5849 3.16784
H 31.7435 16.7129 2.26989
H 0.673658 17.4549 3.45265
Ow 9.07889 3.55324 20.1327
H 9.14445 2.7138 20.588
H 9.98666 3.80878 19.9686
Ow 2.09792 5.3668 31.2812
H 2.32216 4.89758 0.430521
H 1.37876 4.86242 30.9009
Ow 14.6808 23.3918 2.90778
H 14.5049 22.9161 3.71965
H 14.0121 24.0759 2.88133
Ow 23.743 26.845 24.1567
H 23.4339 26.813 23.251
H 24.6339 26.4967 24.1187
Ow 0.54111 9.99933 1.43529
H 0.989881 10.0548 2.27902
H 0.979072 9.28183 0.977304
Ow 15.9658 7.14847 21.8683
H 15.1647 7.65316 22.0091
H 16.6628 7.80463 21.8515
Ow 3.07708 5.1368 7.09773
H 2.41273 5.03944 6.4155
H 2.88443 5.98314 7.5013
Ow 14.3503 21.9134 20.9658
H 14.429 22.0419 21.9111
H 13.4907 22.2723 20.7456
Ow 29.5885 13.4315 16.9409
H 28.7508 13.8722 17.0842
H 29.7601 13.5415 16.0058
Ow 3.60197 31.3766 26.2376
H 3.46876 30.6789 26.8793
H 4.29228 31.9216 26.6155
Ow 14.9466 27.5571 22.1201
H 15.5113 27.7047 21.3614
H 14.1015 27.3084 21.7454
Ow 13.9956 0.788641 8.14852
H 14.5239 31.7328 8.51339
H 13.5759 1.1908 8.90941
Ow 12.0681 19.5574 18.5791
H 11.9662 20.5076 18.6345
H 12.6021 19.4185 17.7969
Ow 14.5406 14.3752 21.3408
H 14.5388 14.8036 22.1968
H 14.9233 15.023 20.7491
Ow 26.3266 26.2433 24.1544
H 26.8286 26.5284 23.391
H 26.5568 26.869 24.8411
Ow 29.8383 10.7606 30.1248
H 30.7614 10.8378 29.8837
H 29.7942 11.1021 31.0179
Ow 23.3061 28.1783 11.9439
H 23.479 28.5881 12.7915
H 24.1066 28.3231 11.4395
Ow 24.7993 7.6751 16.3366
H 25.3461 8.0101 17.0473
H 24.4974 8.45857 15.8762
Ow 20.2188 8.66103 19.0161
H 20.5631 8.20276 19.7824
H 20.8613 8.49257 18.3268
Ow 23.5566 30.0982 8.93778
H 22.8917 29.9035 8.27727
H 24.3866 29.8765 8.51544
Ow 12.9616 2.00737 25.571
H 12.8962 1.5837 26.4269
H 13.5316 1.43169 25.0611
Ow 29.6997 4.44068 2.95374
H 30.1359 5.29272 2.94019
H 28.9153 4.56418 2.41922
Ow 5.31363 4.88262 5.34969
H 4.90714 5.22036 4.55158
H 4.64895 5.00453 6.02765
Ow 0.615018 8.55313 10.7781
H 31.5447 8.93268 10.281
H 31.8499 7.9476 11.3894
Ow 8.64924 27.2323 31.2561
H 8.62318 28.1886 31.2897
H 9.08617 26.975 0.413968
Ow 24.3343 29.4958 25.1246
H 25.0771 29.7646 24.5841
H 24.0408 28.6715 24.7364
Ow 27.435 2.6655 27.8273
H 26.6578 2.96723 27.3571
H 28.1703 2.96375 27.2919
Ow 26.9158 12.0837 23.6837
H 27.2473 12.9391 23.9566
H 27.6978 11.5916 23.4335
Ow 3.77608 14.5632 31.1304
H 2.84051 14.4039 31.0055
H 3.81518 15.3562 31.6651
Ow 3.58775 3.55034 19.8452
H 3.33644 4.09373 19.0983
H 2.75735 3.30156 20.2512
Ow 25.6632 20.8673 16.7958
H 25.7482 19.9904 17.1701
H 26.2764 20.8748 16.061
Ow 27.8084 7.26623 22.033
H 26.9014 7.19445 22.3305
H 28.0963 8.124 22.3455
Ow 23.389 29.3408 20.4599
H 24.1693 29.4477 19.9158
H 23.366 30.1281 21.0038
Ow 8.54717 21.5595 19.6656
H 9.09884 22.3154 19.4637
H 8.91455 21.2034 20.4746
Ow 7.69984 24.5599 22.37
H 8.61425 24.297 22.265
H 7.24623 24.1501 21.6334
Ow 7.07305 23.7224 17.5721
H 8.02971 23.7349 17.5414
H 6.8056 23.582 16.6637
Ow 9.09912 20.7364 15.2079
H 8.56414 20.5811 15.9863
H 9.6196 21.5099 15.4248
Ow 15.9041 1.43918 15.0141
H 15.399 1.37233 15.8246
H 15.2736 1.7475 14.3631
Ow 5.96125 29.9291 27.3848
H 6.07278 29.7929 28.3257
H 5.46811 29.1641 27.0883
Ow 31.6892 4.59525 12.6505
H 31.2989 4.06477 13.3452
H 0.288108 3.96259 11.9788
Ow 7.56598 9.24437 31.0466
H 7.11388 9.18967 30.2046
H 7.10432 8.62133 31.6079
Ow 1.10507 23.3701 2.71269
H 1.14504 23.2537 1.7634
H 1.73393 22.7368 3.05878
Ow 13.2693 3.59989 4.77714
H 13.1925 2.89339 4.13584
H 13.2555 4.40141 4.25402
Ow 7.8241 19.9797 28.0761
H 8.61891 19.5079 27.8271
H 7.88384 20.8134 27.6097
Ow 4.55368 0.51881 23.6718
H 5.32753 31.7279 23.3254
H 4.65023 0.463127 24.6223
Ow 1.08135 13.81 31.0252
H 1.28525 13.2042 31.7377
H 0.331089 13.4146 30.5812
Ow 6.5681 16.2734 15.2114
H 5.62557 16.1074 15.1924
H 6.75883 16.6716 14.362
Ow 2.61305 21.9857 4.77694
H 3.33023 22.259 4.20492
H 2.54746 22.6829 5.42953
Ow 1.91388 27.3378 3.31055
H 2.44765 28.0896 3.0536
H 2.50222 26.587 3.23025
Ow 14.4735 23.8477 8.68858
H 14.3856 23.2969 7.91073
H 13.6242 23.7834 9.12532
Ow 27.3205 27.1752 21.7026
H 27.2098 27.8452 21.0281
H 28.1671 27.3746 22.1024
Ow 11.3041 3.55871 0.598877
H 11.4665 4.49555 0.488278
H 11.5896 3.16699 31.4279
Ow 30.7462 25.3148 4.11617
H 31.4127 25.4533 4.78914
H 31.1851 24.7874 3.44873
Ow 22.2146 21.1848 17.0197
H 22.7736 21.2093 16.243
H 21.4722 20.6372 16.764
Ow 16.5284 29.0224 0.930885
H 17.0854 29.2498 1.6754
H 17.141 28.8614 31.8674
Ow 15.5513 25.5395 28.7285
H 16.4398 25.7748 28.461
H 15.0672 25.4585 27.9066
Ow 8.99839 18.3255 31.5438
H 9.00606 18.5533 30.6142
H 8.07078 18.3104 31.7796
Ow 24.1219 21.8933 0.328622
H 23.3042 22.1941 31.586
H 23.9409 21.8777 1.26845
Ow 28.3028 17.4583 10.6196
H 28.9173 17.6925 11.3151
H 27.6466 18.155 10.6346
Ow 29.958 0.708225 5.43468
H 29.6386 1.19975 4.67794
H 30.7881 0.331156 5.14298
Ow 17.5615 14.2927 23.6097
H 16.9059 14.0025 24.2437
H 17.3795 13.7777 22.8236
Ow 2.03768 31.3521 1.29709
H 1.65768 31.5517 2.15269
H 2.2827 0.550836 0.938667
Ow 15.7379 30.4568 9.10987
H 16.5167 30.2076 8.6123
H 15.384 29.6278 9.43202
Ow 17.7701 9.88192 17.4167
H 18.0525 10.2507 18.2537
H 17.8038 8.93441 17.5484
Ow 11.7889 20.4931 14.5158
H 11.9022 21.2517 13.9431
H 12.654 20.3513 14.9001
Ow 5.56803 5.78295 28.6999
H 6.36332 5.79624 28.1674
H 5.58954 6.60837 29.1842
Ow 1.83137 24.8427 29.729
H 2.771 24.7616 29.5653
H 1.46206 25.1012 28.8846
Ow 31.7448 29.9064 27.0166
H 31.382 29.0583 26.761
H 0.905248 29.6915 27.4705
Ow 23.394 25.4416 13.0599
H 22.6397 24.8769 13.2283
H 24.1467 24.8509 13.0858
Ow 8.35208 9.23499 6.07793
H 7.71168 9.88178 6.37429
H 8.48727 9.4378 5.15225
Ow 13.1641 15.8342 26.4804
H 12.5596 16.3555 27.0083
H 13.982 15.838 26.9778
Ow 1.03659 17.2131 20.2507
H 31.888 17.2983 19.7364
H 1.72601 17.546 19.6761
Ow 16.732 3.91065 25.5316
H 15.9436 4.4527 25.5691
H 17.172 4.18306 24.7264
Ow 15.0414 9.63378 18.973
H 14.1923 9.27577 18.7137
H 15.652 9.30549 18.313
Ow 17.0225 26.5287 13.1608
H 17.7313 25.906 12.9995
H 17.2224 26.9029 14.0189
Ow 0.87269 25.6227 6.04057
H 1.15759 24.7851 6.40587
H 1.68285 26.0539 5.76845
Ow 29.1409 18.5259 16.7494
H 29.1776 18.7381 17.6821
H 29.9741 18.8406 16.3987
Ow 10.3265 8.88758 31.4534
H 10.8523 9.10775 30.6844
H 9.43284 8.81094 31.1192
Ow 4.63101 4.5208 11.1273
H 4.93316 3.93456 10.4335
H 3.76781 4.81365 10.835
Ow 17.2188 26.226 0.747348
H 17.6191 25.9011 1.55383
H 17.8607 26.0293 31.7192
Ow 4.14461 13.7418 4.28321
H 3.9391 13.6783 5.21596
H 3.51748 14.3795 3.94213
Ow 29.8539 14.0369 3.43338
H 30.2676 13.1855 3.57552
H 29.7499 14.0976 2.48376
Ow 4.56192 1.3734 4.5751
H 4.60828 1.74074 3.69244
H 3.92786 1.92605 5.03208
Ow 6.32176 9.85818 14.2199
H 5.84552 10.2741 14.9386
H 7.19964 9.70625 14.57
Ow 5.90219 14.0256 24.5704
H 5.80199 13.087 24.4113
H 5.14627 14.4241 24.1391
Ow 21.0937 17.6525 23.1932
H 21.9382 17.7138 23.6396
H 20.778 18.5553 23.1517
Ow 22.2964 5.47239 7.85113
H 21.7947 6.2719 7.69194
H 21.6651 4.76391 7.72571
Ow 28.8794 12.581 25.8793
H 29.1013 13.4964 26.0498
H 29.312 12.3798 25.0494
Ow 8.17371 1.66383 18.0857
H 8.8205 2.21744 18.5233
H 8.50334 0.772577 18.201
Ow 29.0165 8.87515 8.06351
H 28.5073 9.30931 7.37904
H 28.4243 8.21198 8.41881
Ow 3.05715 9.74415 30.4399
H 3.64143 10.4536 30.7075
H 3.50587 8.94573 30.7182
Ow 23.7772 9.16879 26.1219
H 23.5984 10.0885 26.318
H 24.6439 9.17416 25.7155
Ow 3.92711 29.4532 23.6675
H 4.28515 29.1638 24.5068
H 3.90905 30.4081 23.7301
Ow 18.9647 7.94735 9.38115
H 18.2971 7.26242 9.42027
H 18.6 8.66773 9.89595
Ow 26.6216 19.2994 3.94111
H 26.6676 18.7423 3.16404
H 26.3622 18.7066 4.64645
Ow 3.37565 15.4675 23.2764
H 2.62436 15.1526 22.7737
H 3.04221 15.5713 24.1672
Ow 20.2033 16.305 12.4948
H 19.6887 16.9226 13.0144
H 21.0697 16.7073 12.4326
Ow 8.52344 16.8059 21.1899
H 8.19401 16.6927 20.2983
H 9.47591 16.7759 21.0995
Ow 28.15 3.55679 12.2315
H 27.4535 3.34074 12.8517
H 27.9068 3.0971 11.4279
Ow 5.8605 25.6858 10.3244
H 4.95381 25.441 10.1394
H 6.38435 25.0133 9.88892
Ow 7.99766 14.5594 17.3599
H 7.30753 13.9453 17.6107
H 7.7139 15.3995 17.7203
Ow 20.5576 27.3654 12.7466
H 19.9971 27.2769 13.5175
H 21.2955 27.8965 13.0462
Ow 4.49856 7.77373 16.5703
H 4.02638 7.61331 17.3873
H 4.56586 8.72729 16.515
Ow 25.6766 28.1142 1.87058
H 24.7889 28.4711 1.90171
H 26.0678 28.5113 1.09241
Ow 21.0974 25.5312 4.36275
H 21.6032 25.3451 5.15379
H 21.4691 26.3467 4.02653
Ow 14.1219 30.0984 16.3307
H 13.1752 29.9723 16.2663
H 14.3853 29.5609 17.0776
Ow 14.9194 0.74894 17.4837
H 15.5288 0.695615 18.22
H 14.7559 31.4918 17.241
Ow 6.49954 17.9775 9.10015
H 5.99686 18.7061 9.46451
H 7.03231 17.6642 9.83112
Ow 2.41729 3.5713 24.2284
H 2.0499 4.44502 24.0945
H 3.25722 3.59135 23.7684
Ow 9.70354 14.0468 3.98075
H 10.1697 13.5144 3.33613
H 9.86267 13.6066 4.81574
Ow 16.7877 3.06498 3.8481
H 17.3882 3.05374 4.59341
H 16.6264 3.99411 3.68385
Ow 3.53843 14.9217 19.2726
H 2.77012 14.9649 18.7033
H 4.08121 14.2316 18.8913
Ow 5.33784 20.479 23.4651
H 5.6557 21.1639 22.8767
H 4.68764 20.9168 24.0137
Ow 17.6219 6.38277 28.7767
H 17.3305 6.92079 28.0406
H 18.118 5.67102 28.3722
Ow 6.11754 17.6934 6.07472
H 6.41731 18.5851 6.25221
H 5.28058 17.8068 5.62424
Ow 15.8076 14.8367 25.7355
H 16.5444 15.4259 25.573
H 15.7994 14.7184 26.6854
Ow 7.13379 20.6543 17.5043
H 6.80496 21.5463 17.3925
H 7.62459 20.6806 18.3257
Ow 10.6106 31.838 19.2137
H 10.1936 30.9812 19.1229
H 11.5481 31.6467 19.2434
Ow 4.58463 4.79621 14.076
H 5.07906 5.61582 14.0854
H 4.58636 4.52539 13.1579
Ow 4.30426 22.4316 19.0866
H 4.44279 22.0839 18.2056
H 4.08107 21.6651 19.6147
Ow 5.48533 11.4272 24.0784
H 5.97211 10.6045 24.1289
H 4.63924 11.1828 23.704
Ow 7.29964 8.16842 11.9063
H 7.55713 8.79645 11.2313
H 8.063 8.10786 12.4812
Ow 28.5154 0.620632 22.809
H 28.871 0.304243 23.6389
H 29.2064 0.446993 22.1697
Ow 14.538 8.84072 7.06914
H 14.7398 9.45807 7.77236
H 13.7692 8.36376 7.3817
Ow 2.56846 7.47715 8.33693
H 2.56733 7.74645 9.25549
H 3.37849 7.84333 7.98082
Ow 5.38687 25.3729 19.031
H 4.60947 24.8887 19.3094
H 5.96534 24.7058 18.6612
Ow 18.1946 11.8019 15.1243
H 18.5222 11.2943 14.3818
H 17.7808 11.1537 15.6943
Ow 3.87644 17.8509 4.19831
H 3.23421 18.5567 4.27392
H 3.81857 17.5706 3.28487
Ow 31.4741 21.8274 23.9636
H 30.9959 21.0215 23.7686
H 30.8377 22.5264 23.8134
Ow 2.62235 5.31952 17.8835
H 2.34513 5.05552 17.0061
H 2.05765 6.06133 18.1006
Ow 28.2033 26.39 4.00585
H 27.5514 25.7009 3.87769
H 29.0082 25.921 4.22619
Ow 9.69391 19.9627 12.4946
H 9.18645 19.156 12.4052
H 10.3859 19.8851 11.8378
Ow 6.88084 9.40498 28.2109
H 6.03352 9.1178 27.8706
H 7.51195 8.79431 27.83
Ow 30.0298 3.76948 14.9136
H 29.2224 4.18842 14.6155
H 29.9015 3.64291 15.8537
Ow 5.70659 18.3763 17.194
H 6.03501 17.9503 16.4022
H 6.14748 19.2258 17.21
Ow 10.5532 11.459 11.252
H 11.2539 12.1068 11.3284
H 10.9563 10.6358 11.528
Ow 4.35365 18.1827 22.0287
H 4.28022 19.1157 21.828
H 3.46769 17.9206 22.2791
Ow 20.5263 9.82295 23.9241
H 21.3817 9.46414 23.6876
H 20.7167 10.7025 24.2505
Ow 16.9047 17.1742 9.22689
H 17.6301 17.7864 9.35003
H 16.7425 17.1809 8.2835
Ow 18.9914 18.9991 9.55435
H 19.4821 18.2093 9.32698
H 19.6556 19.6115 9.87094
Ow 23.8138 28.3396 31.1148
H 23.7202 28.4411 0.407674
H 23.9349 27.3989 30.9854
Ow 9.85537 14.724 28.1533
H 10.6695 14.2211 28.1764
H 9.68149 14.8565 27.2213
Ow 30.4028 27.1694 26.821
H 30.7039 26.2613 26.7886
H 29.6924 27.1639 27.4627
Ow 29.4572 3.83509 26.7983
H 29.7415 3.91985 25.8882
H 29.2575 4.73041 27.0717
Ow 23.0439 7.34139 13.0237
H 22.4187 7.16704 13.7274
H 23.5328 8.10839 13.3218
Ow 18.9377 10.9406 26.8585
H 18.0856 11.3624 26.9697
H 18.7764 10.0181 27.0568
Ow 6.83219 9.00211 24.5614
H 7.63538 9.52279 24.5697
H 7.05963 8.20317 25.0365
Ow 27.5798 18.1616 21.4632
H 26.7961 18.391 21.9627
H 28.2182 17.8983 22.1261
Ow 6.89981 11.7799 3.91676
H 7.26117 12.0375 4.76492
H 7.52283 11.1385 3.57524
Ow 16.1696 18.7054 20.5252
H 16.4446 18.5837 21.4339
H 16.8708 19.2231 20.1295
Ow 9.82604 27.853 24.7569
H 9.44165 28.6779 25.0534
H 10.4284 27.6033 25.4577
Ow 17.6228 14.6448 28.2176
H 17.3466 15.4992 28.5492
H 18.5481 14.5828 28.4549
Ow 15.9258 10.2329 29.4044
H 16.5303 9.64068 28.9568
H 16.4928 10.8498 29.8672
Ow 9.86751 15.2293 25.3452
H 10.6825 14.7404 25.2317
H 10.0968 16.1323 25.1243
Ow 21.1807 23.4317 28.0403
H 20.5684 23.0258 27.4265
H 21.0079 24.3701 27.9657
Ow 2.17565 31.7921 20.4557
H 1.73155 0.88419 20.8574
H 3.02823 0.481827 20.1876
Ow 14.3289 30.553 1.60039
H 15.2609 30.5108 1.38637
H 14.1878 29.8233 2.20358
Ow 25.0338 22.8803 19.2061
H 25.6967 22.4879 19.7744
H 24.9916 22.297 18.4483
Ow 2.90569 27.5854 8.87003
H 2.78995 26.6957 9.20375
H 3.16283 27.4668 7.95572
Ow 22.18 31.0541 12.8748
H 22.4245 31.5269 13.6704
H 23.0077 30.9137 12.4151
Ow 26.1904 27.4827 17.1615
H 26.5903 28.2969 17.4673
H 26.8062 27.1417 16.5128
Ow 27.6336 22.1297 2.99693
H 27.2262 22.6135 2.27836
H 28.4963 21.8845 2.66252
Ow 9.31145 14.435 14.6774
H 9.21471 13.4992 14.5005
H 9.40585 14.8341 13.8125
Ow 26.3629 13.224 27.0025
H 25.9385 13.7978 26.3646
H 27.1918 12.9793 26.5911
Ow 3.37248 17.8963 18.6814
H 4.1324 18.3996 18.3889
H 3.73055 17.0445 18.9314
Ow 28.0263 1.53505 10.1034
H 28.3384 0.823299 10.6623
H 27.2169 1.2 9.71758
Ow 10.9971 9.12503 28.7184
H 11.7763 9.4066 28.2389
H 10.5717 8.49522 28.1364
Ow 25.6904 18.8957 23.3462
H 24.8881 19.4162 23.3873
H 25.4239 18.0211 23.6295
Ow 4.58623 23.8363 6.08733
H 4.34699 23.0472 6.5735
H 5.4214 24.1086 6.4677
Ow 5.00491 28.7127 21.0168
H 4.68773 28.8679 21.9065
H 4.21707 28.5066 20.5137
Ow 9.68152 22.0802 26.2754
H 9.0107 22.0811 25.5926
H 10.1022 22.9367 26.1998
Ow 15.0741 28.9936 28.6515
H 15.1654 29.9057 28.376
H 15.9197 28.5949 28.4454
Ow 3.3048 25.1612 2.51518
H 3.8974 24.8233 3.18669
H 2.46363 24.7464 2.70664
Ow 29.8548 5.37972 21.0307
H 30.7186 5.68604 21.3068
H 29.2531 6.0656 21.3202
Ow 10.8154 31.3762 11.4703
H 11.2316 31.3756 12.3324
H 10.6012 0.640531 11.3081
Ow 1.10627 4.5229 5.40032
H 1.24565 5.3246 4.89621
H 0.99516 3.83982 4.739
Ow 19.066 25.4986 10.8482
H 19.1176 24.9047 11.5971
H 19.1604 24.93 10.084
Ow 25.7761 23.8672 12.6554
H 25.9603 22.96 12.4118
H 26.1595 23.964 13.5271
Ow 14.8564 12.4966 14.8137
H 15.576 12.6588 15.4237
H 15.0792 11.6649 14.3954
Ow 22.6473 31.3249 26.5982
H 22.8603 0.603204 26.6292
H 23.2686 30.9576 25.9695
Ow 3.79813 22.0089 16.3833
H 3.06887 21.6163 16.8633
H 4.0324 21.3545 15.7248
Ow 9.92292 18.0871 17.6062
H 10.7057 18.5676 17.8759
H 9.90911 18.1668 16.6525
Ow 22.8446 15.8117 8.34296
H 22.2358 16.2047 7.71757
H 23.6903 16.2098 8.13759
Ow 11.9065 31.0894 14.122
H 11.7575 0.37445 14.2302
H 11.1803 30.6758 14.5887
Ow 1.50965 28.8565 15.2739
H 0.910296 28.1287 15.4393
H 1.03499 29.4252 14.6677
Ow 24.39 6.19627 30.4801
H 24.1901 6.99706 29.9953
H 24.687 6.50234 31.3371
Ow 4.44793 7.98012 12.1374
H 3.98944 8.47945 11.4618
H 4.29439 7.06422 11.9053
Ow 1.60821 30.9292 24.4943
H 1.06007 31.7132 24.5301
H 2.22407 31.0337 25.2196
Ow 10.0456 0.735255 8.01316
H 10.1837 31.6881 8.65
H 10.7093 1.39065 8.23048
Ow 27.0053 11.2867 17.7319
H 26.3068 11.0856 17.1091
H 26.6668 10.9894 18.5765
Ow 9.10778 6.4775 30.7574
H 8.33673 5.99436 31.0547
H 9.15069 6.30577 29.8167
Ow 15.8351 13.6433 2.29564
H 16.6474 13.1987 2.53842
H 16.1031 14.2983 1.65152
Ow 13.4599 18.3175 20.4624
H 14.3914 18.4971 20.3351
H 13.0255 18.7855 19.7493
Ow 22.3831 3.40407 13.4466
H 21.827 2.99622 12.7827
H 23.1367 3.7351 12.958
Ow 14.842 23.0646 16.7387
H 13.9446 23.0534 17.0717
H 15.213 22.2283 17.0202
Ow 4.41442 23.445 0.310818
H 3.94395 24.0634 0.869862
H 3.76944 22.7686 31.7589
Ow 0.548396 11.0263 8.43198
H 31.5372 10.909 9.11021
H 0.483373 10.2387 7.89256
Ow 20.2577 13.2595 28.2151
H 20.8245 13.0562 28.9593
H 19.585 12.5787 28.2328
Ow 5.43432 24.3092 24.4011
H 5.2367 24.7593 25.2225