LAMMPS (23 Jun 2022 - Update 1)
Reading data file ...
  orthogonal box = (0 0 0) to (32.221477 32.221477 32.221477)
  2 by 4 by 4 MPI processor grid
  reading atoms ...
  3324 atoms
  scanning bonds ...
  4 = max bonds/atom
  scanning angles ...
  6 = max angles/atom
  reading bonds ...
  2216 bonds
  reading angles ...
  1216 angles
Finding 1-2 1-3 1-4 neighbors ...
  special bond factors lj:    0        0        0       
  special bond factors coul:  0        0        0       
     4 = max # of 1-2 neighbors
     3 = max # of 1-3 neighbors
     3 = max # of 1-4 neighbors
     4 = max # of special neighbors
  special bonds CPU = 0.001 seconds
  read_data CPU = 0.017 seconds
Setting atom values ...
  1000 settings made for charge
Setting atom values ...
  2000 settings made for charge
Setting atom values ...
  72 settings made for charge
Setting atom values ...
  72 settings made for charge
Setting atom values ...
  36 settings made for charge
Setting atom values ...
  144 settings made for charge
1000 atoms in group wat
72 atoms in group Li
36 atoms in group S
  create bodies CPU = 0.001 seconds
  1108 rigid bodies with 3324 atoms
  1.4900047 = max distance from body owner to body atom
PPPM initialization ...
  extracting TIP4P info from pair style
  using 12-bit tables for long-range coulomb (../kspace.cpp:342)
  G vector (1/distance) = 0.30999641
  grid = 30 30 30
  stencil order = 5
  estimated absolute RMS force accuracy = 0.0037771527
  estimated relative force accuracy = 1.1374783e-05
  using double precision KISS FFT
  3d grid and FFT values/proc = 4950 960
Generated 0 of 15 mixed pair_coeff terms from arithmetic mixing rule
Neighbor list info ...
  update every 1 steps, delay 0 steps, check yes
  max neighbors/atom: 2000, page size: 100000
  master list distance cutoff = 12.3092
  ghost atom cutoff = 12.3092
  binsize = 6.1546, bins = 6 6 6
  1 neighbor lists, perpetual/occasional/extra = 1 0 0
  (1) pair lj/cut/tip4p/long, perpetual
      attributes: half, newton on
      pair build: half/bin/newton
      stencil: half/bin/3d
      bin: standard
Setting up Verlet run ...
  Unit style    : real
  Current step  : 0
  Time step     : 0.001
Per MPI rank memory allocation (min/avg/max) = 15.44 | 15.48 | 15.52 Mbytes
   Step        Density          Temp          Press          TotEng    
         0   1.090712       300.79647      2053976.8      5841.0886    
      1000   1.0896624      326.615        97355.33       5794.5163    
      2000   1.0866287      404.32727      93015.201      5658.2137    
      3000   1.0817127      526.0785       85551.541      5424.7912    
      4000   1.0750891      678.20202      75123.796      5075.9008    
      5000   1.0670007      849.78655      63938.153      4628.1297    
      6000   1.0577169      1029.398       53741.985      4097.5836    
      7000   1.0475063      1203.7637      42571.057      3487.7724    
      8000   1.0366549      1361.0653      32563.144      2804.394     
      9000   1.0254333      1493.7952      23758.904      2067.1469    
     10000   1.0140848      1596.3191      15968.769      1289.0878    
Loop time of 27.02 on 32 procs for 10000 steps with 3324 atoms

Performance: 0.032 ns/day, 750.555 hours/ns, 370.096 timesteps/s
99.6% CPU use with 32 MPI tasks x no OpenMP threads

MPI task timing breakdown:
Section |  min time  |  avg time  |  max time  |%varavg| %total
---------------------------------------------------------------
Pair    | 9.4013     | 11.362     | 13.4       |  30.9 | 42.05
Bond    | 0.036402   | 0.043332   | 0.05232    |   1.7 |  0.16
Kspace  | 4.9859     | 7.1236     | 9.1332     |  40.3 | 26.36
Neigh   | 0.002166   | 0.0023944  | 0.0025728  |   0.2 |  0.01
Comm    | 1.4273     | 1.6034     | 1.7655     |   6.4 |  5.93
Output  | 0.00055734 | 0.0005816  | 0.0008182  |   0.0 |  0.00
Modify  | 6.1806     | 6.5121     | 6.7723     |   6.3 | 24.10
Other   |            | 0.3725     |            |       |  1.38

Nlocal:        103.875 ave         114 max          95 min
Histogram: 4 2 1 5 7 4 5 0 0 4
Nghost:           4091 ave        4109 max        4075 min
Histogram: 2 5 5 3 3 2 3 5 1 3
Neighs:        38314.7 ave       44120 max       33076 min
Histogram: 3 4 1 3 7 5 1 5 1 2

Total # of neighbors = 1226070
Ave neighs/atom = 368.85379
Ave special neighs/atom = 2.0649819
Neighbor list builds = 2
Dangerous builds = 0
PPPM initialization ...
  extracting TIP4P info from pair style
  using 12-bit tables for long-range coulomb (../kspace.cpp:342)
  G vector (1/distance) = 0.31287321
  grid = 32 32 32
  stencil order = 5
  estimated absolute RMS force accuracy = 0.0030423274
  estimated relative force accuracy = 9.1618787e-06
  using double precision KISS FFT
  3d grid and FFT values/proc = 5175 1024
Generated 0 of 15 mixed pair_coeff terms from arithmetic mixing rule
Setting up Verlet run ...
  Unit style    : real
  Current step  : 10000
  Time step     : 0.01
Per MPI rank memory allocation (min/avg/max) = 15.47 | 15.5 | 15.53 Mbytes
   Step        Density          Temp          Press          TotEng    
     10000   1.0140848      1596.3191      9328.3121      1289.0309    
     11000   0.92172732     1389.8212     -11982.302     -5596.1852    
     12000   0.87620603     969.6935      -12630.046     -9003.0563    
     13000   0.86287217     818.04519     -11141.288     -11170.059    
     14000   0.87252938     689.12459     -7957.5958     -12819.14     
     15000   0.89825497     636.89859     -7353.1997     -14137.859    
     16000   0.93698554     577.84344     -4933.8654     -15287.342    
     17000   0.98282019     542.98051     -2337.153      -16193.993    
     18000   1.0287337      532.53838     -350.59442     -16966.198    
     19000   1.0704881      505.96172      2153.854      -17637.266    
     20000   1.1041642      493.59091      3642.829      -18221.262    
Loop time of 25.781 on 32 procs for 10000 steps with 3324 atoms

Performance: 0.335 ns/day, 71.614 hours/ns, 387.882 timesteps/s
99.6% CPU use with 32 MPI tasks x no OpenMP threads

MPI task timing breakdown:
Section |  min time  |  avg time  |  max time  |%varavg| %total
---------------------------------------------------------------
Pair    | 8.4109     | 10.214     | 12.438     |  29.6 | 39.62
Bond    | 0.037202   | 0.043101   | 0.053633   |   1.7 |  0.17
Kspace  | 5.3313     | 7.6506     | 9.6137     |  35.5 | 29.68
Neigh   | 0.017494   | 0.018428   | 0.019826   |   0.5 |  0.07
Comm    | 1.2956     | 1.4642     | 1.6062     |   6.5 |  5.68
Output  | 0.00038419 | 0.00039767 | 0.00062617 |   0.0 |  0.00
Modify  | 6.0103     | 6.1994     | 6.2837     |   1.8 | 24.05
Other   |            | 0.1907     |            |       |  0.74

Nlocal:        103.875 ave         119 max          93 min
Histogram: 5 1 4 6 4 5 2 3 1 1
Nghost:        4296.47 ave        4342 max        4247 min
Histogram: 3 0 5 4 3 4 5 2 1 5
Neighs:        40693.4 ave       49335 max       33899 min
Histogram: 1 5 5 2 6 6 2 4 0 1

Total # of neighbors = 1302190
Ave neighs/atom = 391.75391
Ave special neighs/atom = 2.0649819
Neighbor list builds = 16
Dangerous builds = 0
PPPM initialization ...
  extracting TIP4P info from pair style
  using 12-bit tables for long-range coulomb (../kspace.cpp:342)
  G vector (1/distance) = 0.31029136
  grid = 30 30 30
  stencil order = 5
  estimated absolute RMS force accuracy = 0.0037314352
  estimated relative force accuracy = 1.1237106e-05
  using double precision KISS FFT
  3d grid and FFT values/proc = 4950 960
Generated 0 of 15 mixed pair_coeff terms from arithmetic mixing rule
Setting up Verlet run ...
  Unit style    : real
  Current step  : 20000
  Time step     : 0.1
Per MPI rank memory allocation (min/avg/max) = 15.44 | 15.48 | 15.52 Mbytes
   Step        Density          Temp          Press          TotEng    
     20000   1.1041642      493.59091      3494.2838     -18221.269    
     21000   1.1996004      330.40148     -577.11224     -21919.083    
     22000   1.1977862      308.95113     -1437.0206     -22906.993    
     23000   1.1988538      298.10253      226.2787      -23250.558    
     24000   1.1857969      292.27596     -140.3022      -23416.789    
     25000   1.1805942      299.46448      486.47235     -23397.936    
     26000   1.176729       298.21944     -527.99145     -23560.914    
     27000   1.1727565      297.85989      814.46764     -23577.534    
     28000   1.1712505      309.93447      402.36783     -23540.061    
     29000   1.1652491      300.87773     -50.340702     -23634.656    
     30000   1.1588162      298.40696     -472.78031     -23577.502    
Loop time of 29.0834 on 32 procs for 10000 steps with 3324 atoms

Performance: 2.971 ns/day, 8.079 hours/ns, 343.839 timesteps/s
99.6% CPU use with 32 MPI tasks x no OpenMP threads

MPI task timing breakdown:
Section |  min time  |  avg time  |  max time  |%varavg| %total
---------------------------------------------------------------
Pair    | 11.392     | 12.976     | 14.177     |  20.6 | 44.61
Bond    | 0.03777    | 0.043825   | 0.055951   |   1.5 |  0.15
Kspace  | 5.692      | 6.9809     | 8.5826     |  29.3 | 24.00
Neigh   | 0.12102    | 0.12802    | 0.13911    |   1.4 |  0.44
Comm    | 1.5322     | 1.7062     | 1.8584     |   6.2 |  5.87
Output  | 0.00037982 | 0.0003937  | 0.00063821 |   0.0 |  0.00
Modify  | 6.5428     | 6.8852     | 7.1388     |   6.0 | 23.67
Other   |            | 0.3633     |            |       |  1.25

Nlocal:        103.875 ave         117 max          95 min
Histogram: 3 4 4 5 5 6 1 3 0 1
Nghost:        4432.31 ave        4470 max        4394 min
Histogram: 1 4 2 2 8 4 4 1 5 1
Neighs:        42852.9 ave       49314 max       37675 min
Histogram: 3 2 1 10 3 5 4 1 1 2

Total # of neighbors = 1371293
Ave neighs/atom = 412.54302
Ave special neighs/atom = 2.0649819
Neighbor list builds = 100
Dangerous builds = 0
PPPM initialization ...
  extracting TIP4P info from pair style
  using 12-bit tables for long-range coulomb (../kspace.cpp:342)
  G vector (1/distance) = 0.31145014
  grid = 30 30 30
  stencil order = 5
  estimated absolute RMS force accuracy = 0.003556715
  estimated relative force accuracy = 1.0710942e-05
  using double precision KISS FFT
  3d grid and FFT values/proc = 4950 960
Generated 0 of 15 mixed pair_coeff terms from arithmetic mixing rule
Setting up Verlet run ...
  Unit style    : real
  Current step  : 30000
  Time step     : 0.2
Per MPI rank memory allocation (min/avg/max) = 15.45 | 15.48 | 15.52 Mbytes
   Step        Density          Temp          Press          TotEng    
     30000   1.1588162      298.40696      575.03511     -23577.501    
     31000   1.1527851      287.3856      -328.81366     -23808.913    
     32000   1.1534535      299.88783      359.44769     -23656.846    
     33000   1.1581415      307.34833     -266.17172     -23640.314    
     34000   1.1509633      301.19468     -1303.548      -23781.363    
     35000   1.1548912      309.01072      99.619355     -23739.647    
     36000   1.1602957      301.1813       903.89583     -23831.822    
     37000   1.1427289      292.05778     -679.11808     -23896.462    
     38000   1.1617577      305.75985      947.76367     -23784.479    
     39000   1.1652346      295.09631      142.13411     -23854.829    
     40000   1.1431452      301.45337      308.06505     -23826.311    
Loop time of 28.8604 on 32 procs for 10000 steps with 3324 atoms

Performance: 5.987 ns/day, 4.008 hours/ns, 346.495 timesteps/s
99.6% CPU use with 32 MPI tasks x no OpenMP threads

MPI task timing breakdown:
Section |  min time  |  avg time  |  max time  |%varavg| %total
---------------------------------------------------------------
Pair    | 11.267     | 12.824     | 14.294     |  20.4 | 44.43
Bond    | 0.038644   | 0.043764   | 0.051041   |   1.5 |  0.15
Kspace  | 5.2535     | 6.7544     | 8.3847     |  28.8 | 23.40
Neigh   | 0.28699    | 0.3031     | 0.32947    |   2.2 |  1.05
Comm    | 1.5212     | 1.6963     | 1.8517     |   6.4 |  5.88
Output  | 0.00034712 | 0.00036169 | 0.00060781 |   0.0 |  0.00
Modify  | 6.5429     | 6.8797     | 7.1242     |   6.0 | 23.84
Other   |            | 0.3592     |            |       |  1.24

Nlocal:        103.875 ave         111 max          97 min
Histogram: 3 4 5 3 1 3 2 4 4 3
Nghost:        4368.62 ave        4404 max        4344 min
Histogram: 5 6 1 3 3 6 1 4 1 2
Neighs:        42196.2 ave       47733 max       36854 min
Histogram: 2 2 2 5 6 5 4 2 2 2

Total # of neighbors = 1350280
Ave neighs/atom = 406.22142
Ave special neighs/atom = 2.0649819
Neighbor list builds = 240
Dangerous builds = 0
PPPM initialization ...
  extracting TIP4P info from pair style
  using 12-bit tables for long-range coulomb (../kspace.cpp:342)
  G vector (1/distance) = 0.31112416
  grid = 30 30 30
  stencil order = 5
  estimated absolute RMS force accuracy = 0.0036050893
  estimated relative force accuracy = 1.0856619e-05
  using double precision KISS FFT
  3d grid and FFT values/proc = 4950 960
Generated 0 of 15 mixed pair_coeff terms from arithmetic mixing rule
Setting up Verlet run ...
  Unit style    : real
  Current step  : 40000
  Time step     : 0.5
Per MPI rank memory allocation (min/avg/max) = 15.45 | 15.48 | 15.52 Mbytes
   Step        Density          Temp          Press          TotEng    
     40000   1.1431452      301.45337      1446.5093     -23826.311    
     41000   1.1420821      297.0666       19.630383     -23858.965    
     42000   1.1462703      294.71141      217.70876     -23963.254    
     43000   1.1443714      309.03551     -220.3011      -23922.723    
     44000   1.1473561      297.24291      200.83896     -23923.009    
     45000   1.1443059      291.5504      -128.87794     -23965.125    
     46000   1.142595       297.99337     -32.87994      -23910.588    
     47000   1.1486436      292.52497      377.64018     -24048.981    
     48000   1.1498665      305.08235     -339.17345     -23928.064    
     49000   1.1493437      301.97759     -373.15322     -23949.005    
     50000   1.1620061      294.18474      379.61107     -24103.586    
Loop time of 29.5327 on 32 procs for 10000 steps with 3324 atoms

Performance: 14.628 ns/day, 1.641 hours/ns, 338.607 timesteps/s
99.6% CPU use with 32 MPI tasks x no OpenMP threads

MPI task timing breakdown:
Section |  min time  |  avg time  |  max time  |%varavg| %total
---------------------------------------------------------------
Pair    | 11.139     | 12.784     | 13.88      |  20.4 | 43.29
Bond    | 0.038487   | 0.043985   | 0.053238   |   1.5 |  0.15
Kspace  | 5.7057     | 6.7261     | 8.364      |  28.7 | 22.78
Neigh   | 0.75357    | 0.79702    | 0.86541    |   3.5 |  2.70
Comm    | 1.5729     | 1.7692     | 1.9285     |   6.7 |  5.99
Output  | 0.0003654  | 0.00038575 | 0.00063463 |   0.0 |  0.00
Modify  | 6.7116     | 7.0555     | 7.3144     |   6.1 | 23.89
Other   |            | 0.3563     |            |       |  1.21

Nlocal:        103.875 ave         117 max          95 min
Histogram: 5 6 4 1 2 7 2 2 1 2
Nghost:        4409.09 ave        4463 max        4376 min
Histogram: 2 4 9 3 4 7 2 0 0 1
Neighs:        42858.3 ave       49317 max       37526 min
Histogram: 4 5 2 1 6 5 3 1 2 3

Total # of neighbors = 1371465
Ave neighs/atom = 412.59477
Ave special neighs/atom = 2.0649819
Neighbor list builds = 636
Dangerous builds = 0
  create bodies CPU = 0.000 seconds
  1108 rigid bodies with 3324 atoms
  1.4902756 = max distance from body owner to body atom
PPPM initialization ...
  extracting TIP4P info from pair style
  using 12-bit tables for long-range coulomb (../kspace.cpp:342)
  G vector (1/distance) = 0.3115159
  grid = 30 30 30
  stencil order = 5
  estimated absolute RMS force accuracy = 0.0035470297
  estimated relative force accuracy = 1.0681775e-05
  using double precision KISS FFT
  3d grid and FFT values/proc = 4950 960
Generated 0 of 15 mixed pair_coeff terms from arithmetic mixing rule
Setting up Verlet run ...
  Unit style    : real
  Current step  : 0
  Time step     : 2
Per MPI rank memory allocation (min/avg/max) = 15.45 | 15.48 | 15.52 Mbytes
   Step        Density          Temp          Press          TotEng    
         0   1.1620061      294.18474      3590.7117     -24103.586    
      1000   1.159023       299.01232      673.36574     -24052.487    
      2000   1.155427       290.46916      208.72939     -24155.694    
      3000   1.1582102      294.07605      299.15998     -24045.831    
      4000   1.1496202      298.48355      528.48047     -23974.966    
      5000   1.1430582      296.87624     -996.8869      -23984.476    
      6000   1.1516664      300.67341     -89.253877     -24000.546    
      7000   1.1556766      292.73197     -574.14024     -24098.972    
      8000   1.1494524      290.18995     -404.38945     -24104.98     
      9000   1.1481293      294.63104     -566.77467     -24027.231    
     10000   1.1439139      298.82572      50.379222     -24000.663    
     11000   1.1483844      293.3069       24.430347     -24120.775    
     12000   1.1527247      298.89354      962.15035     -23972.04     
     13000   1.149683       299.14197      570.65648     -24000.473    
     14000   1.1486828      289.8557       1143.1953     -24100.147    
     15000   1.1412495      296.2979      -612.49106     -23952.53     
     16000   1.1384287      297.92644     -1426.3016     -23945.703    
     17000   1.1513176      297.05945      567.42645     -23974.619    
     18000   1.1589206      297.08623     -205.01458     -24083.007    
     19000   1.1588291      293.40988      239.1578      -24016.942    
     20000   1.1525513      302.70332     -797.43491     -23987.9      
     21000   1.1651702      292.66622      5.3295691     -24080.585    
     22000   1.1534057      295.14449      592.80101     -24005.933    
     23000   1.1469114      294.08672     -595.87399     -24002.157    
     24000   1.1517333      300.55325      384.99247     -23951.356    
     25000   1.1487174      292.51208      506.07017     -23930.888    
     26000   1.1422135      281.87317      44.617963     -23999.106    
     27000   1.1499531      291.44634     -737.06704     -24052.662    
     28000   1.1520898      296.26659     -296.23599     -23945.847    
     29000   1.1470526      300.24103     -378.62662     -23929.325    
     30000   1.1418718      300.51334      430.93518     -23985.74     
     31000   1.1336726      288.56577     -560.39477     -24033.522    
     32000   1.1460437      287.51535     -136.62586     -24031.759    
     33000   1.1652836      299.57967      131.80414     -24005.48     
     34000   1.1438067      292.5714      -344.86578     -24088.03     
     35000   1.1444071      304.9698       81.679099     -23931.024    
     36000   1.1437512      296.48837     -9.4782866     -24028.096    
     37000   1.1518775      292.28943      111.46607     -24061.008    
     38000   1.1494271      295.57436     -273.42954     -23951.964    
     39000   1.156365       296.58032      536.90474     -24114.837    
     40000   1.1513275      291.03204     -12.784576     -24040.555    
     41000   1.1528326      296.16002      84.568485     -24083.251    
     42000   1.1565489      297.73472     -11.020956     -24144.592    
     43000   1.1565675      290.30299     -59.72088      -24152.086    
     44000   1.1554491      295.04567      389.7654      -24007.099    
     45000   1.1556714      297.94005      79.752746     -23973.52     
     46000   1.1562858      297.18744      329.1822      -24106.494    
     47000   1.1541851      295.80805      706.87694     -23927.915    
     48000   1.1498549      298.85966     -19.23321      -24041.698    
     49000   1.155836       290.45812      473.46979     -24075.301    
     50000   1.1587711      299.83169     -123.54837     -24006.421    
     51000   1.1618141      302.11029     -507.69073     -24031.251    
     52000   1.1631383      300.09905      740.56163     -23975.076    
     53000   1.1526521      295.25941     -703.10433     -24002.9      
     54000   1.1436179      298.14418     -1182.8746     -24037.173    
     55000   1.1496206      302.72733     -25.367875     -23983.177    
     56000   1.1418989      291.91856     -798.08006     -24072.833    
     57000   1.1486255      294.21795      668.56757     -24074.213    
     58000   1.1502708      292.75104      271.0508      -23978.981    
     59000   1.1392737      300.05239     -381.77066     -24000.267    
     60000   1.1475111      291.74155      286.79224     -23977.854    
     61000   1.1609918      299.38826      622.70419     -24040.299    
     62000   1.1485529      298.24527      210.44084     -23997.813    
     63000   1.1375152      304.82552     -283.58824     -23901.085    
     64000   1.1313701      307.58254     -533.29508     -23945.514    
     65000   1.1572307      290.4324       191.68808     -24023.965    
     66000   1.1522222      303.66825      566.80768     -23910.779    
     67000   1.1534492      304.46745     -16.571324     -23956.226    
     68000   1.1489319      302.53484      183.76582     -24026.58     
     69000   1.1544355      297.87626      579.87825     -23963.899    
     70000   1.1494954      291.57887     -21.92071      -24043.836    
     71000   1.1665601      301.25782      793.76567     -23974.558    
     72000   1.1588255      293.44644     -305.91597     -24002.902    
     73000   1.1522499      294.99152      143.05446     -24015.938    
     74000   1.1505674      304.42925      60.351908     -23985.93     
     75000   1.1376901      289.23482     -417.37187     -24054.937    
     76000   1.1384741      292.44195     -742.01802     -23994.425    
     77000   1.1452367      303.15642      947.68442     -24004.773    
     78000   1.1477798      284.97292      3.6635077     -24126.21     
     79000   1.1356277      293.7437      -224.59353     -24036.006    
     80000   1.1549836      300.74274      251.18822     -23973.439    
     81000   1.1421585      301.07276      27.871409     -23984.09     
     82000   1.1543548      297.67322      502.70808     -24061.411    
     83000   1.1552201      302.06842      1370.2847     -23976.132    
     84000   1.1457453      298.04343      1.9784207     -24080.881    
     85000   1.1427024      287.64155      322.13049     -24155.505    
     86000   1.1481355      293.5854       87.780949     -24015.58     
     87000   1.1540717      300.53474      57.091275     -23972.773    
     88000   1.1631051      299.6743       924.23059     -24023.196    
     89000   1.1533971      299.47308      850.86724     -24040.155    
     90000   1.1444751      292.06815     -479.65754     -23963.241    
     91000   1.138771       298.88886     -1124.1451     -24025.212    
     92000   1.1453338      296.89898     -575.02225     -24016.394    
     93000   1.1526043      300.06527      135.40214     -23996.514    
     94000   1.1495929      288.74814     -255.29518     -24155.589    
     95000   1.1496135      298.09494      222.01613     -23894.3      
     96000   1.1517726      296.2979       168.54656     -24144.764    
     97000   1.1469767      297.425       -704.14169     -24028.548    
     98000   1.1552533      295.92232      155.54972     -23988.604    
     99000   1.1545255      297.87694      329.43017     -24005.749    
    100000   1.1584223      295.98219      1024.3124     -24004.974    
    101000   1.1524433      304.12927     -272.59342     -23980.112    
    102000   1.1606746      295.56832      96.622827     -23973.059    
    103000   1.1468702      302.71726     -359.01673     -23982.896    
    104000   1.1555125      297.8077       668.2852      -23998.648    
    105000   1.1544728      296.50588     -309.78491     -24034.141    
    106000   1.156482       296.95197      635.79273     -23987.312    
    107000   1.1546028      298.3503      -111.02773     -23920.792    
    108000   1.1510189      294.15738     -495.10703     -24045.489    
    109000   1.139687       289.52465     -679.30493     -24042.008    
    110000   1.1489474      308.27812      312.10787     -23881.026    
    111000   1.1537803      293.40667      493.22666     -24048.637    
    112000   1.1468121      295.79405     -230.46826     -23928.644    
    113000   1.1551158      292.89797     -597.13666     -24084.955    
    114000   1.1457319      289.67959     -410.23177     -24087.247    
    115000   1.1474221      287.51857     -150.99594     -24053.744    
    116000   1.1431071      293.4822      -9.8440038     -24024.575    
    117000   1.1499606      301.9381      -537.78205     -23969.28     
    118000   1.1515322      297.59049     -509.6947      -23920.981    
    119000   1.1586518      293.54323     -50.008114     -23972.675    
    120000   1.1651835      299.8209       835.43711     -24014.653    
    121000   1.1512159      290.22872     -361.02281     -24030.526    
    122000   1.1524188      298.63439     -661.60138     -24006.498    
    123000   1.1563826      290.91        -698.97962     -23982.592    
    124000   1.1391151      289.26152     -297.69149     -24067.422    
    125000   1.1471462      300.80656      980.00773     -23952.024    
    126000   1.1473841      304.48728      190.02922     -23898.02     
    127000   1.1582048      287.84699     -419.51662     -24115.732    
    128000   1.1572909      296.98262      367.62738     -23964.478    
    129000   1.1649288      291.8793       42.812053     -24020.287    
    130000   1.1524907      300.51945     -357.75777     -23988.871    
    131000   1.1527528      285.25355     -795.97552     -24123.305    
    132000   1.1473867      294.4236      -600.31404     -24046.323    
    133000   1.1483147      290.73465     -93.097718     -23998.305    
    134000   1.1546526      293.27507      0.15737054    -24037.727    
    135000   1.1503026      299.27756      608.69287     -24078.343    
    136000   1.1560543      299.4755       392.57898     -24016.127    
    137000   1.1591399      295.78569      181.93294     -24011.815    
    138000   1.148696       286.60105     -210.98387     -24078.697    
    139000   1.1493361      297.44892     -609.76851     -23954.15     
    140000   1.1453808      307.27608      90.144345     -23861.445    
    141000   1.1579539      293.46263      103.42373     -24090.995    
    142000   1.1542724      292.84349      558.6343      -24030.089    
    143000   1.1553084      293.81288      502.71053     -24118.349    
    144000   1.1545238      298.04318     -90.329877     -24038.317    
    145000   1.1482672      290.37024     -758.22595     -24043.626    
    146000   1.1503772      297.06984      625.91486     -24008.574    
    147000   1.143056       289.19992     -319.75302     -24022.282    
    148000   1.1483361      297.51757     -315.6125      -24023.766    
    149000   1.1427746      287.96114      115.59149     -24059.341    
    150000   1.1629347      288.24331      601.15159     -24122.376    
    151000   1.1546086      306.11628     -994.68772     -23990.053    
    152000   1.1559722      301.74692      369.06418     -23940.746    
    153000   1.1544166      293.68741     -1029.4947     -24040.004    
    154000   1.1552273      301.97932      719.18017     -23974.986    
    155000   1.1381332      298.14319     -548.26712     -23962.748    
    156000   1.1542885      294.87736      156.069       -24064.137    
    157000   1.1488607      296.71379     -15.077772     -24001.975    
    158000   1.1513053      295.06395      565.86196     -24023.909    
    159000   1.152679       298.06901      461.6493      -24011.82     
    160000   1.155025       301.63425      948.15187     -23964.095    
    161000   1.1519681      303.08594      549.43671     -23874.131    
    162000   1.1467574      296.23623     -1033.7426     -24027.836    
    163000   1.1384532      299.29764     -395.4424      -23892.741    
    164000   1.1380308      297.57611     -868.14144     -23973.009    
    165000   1.1569606      289.12512      372.63943     -24143.258    
    166000   1.1588724      294.34547     -143.66476     -24054.721    
    167000   1.1536429      294.05475      349.70882     -24012.183    
    168000   1.1434948      287.5352      -929.11242     -24035.494    
    169000   1.1518348      290.9513       236.66346     -23971.351    
    170000   1.1529455      298.24695     -122.66333     -23973.421    
    171000   1.1587559      297.01961      878.02722     -24043.544    
    172000   1.144904       300.20226     -59.612124     -23924.131    
    173000   1.1372689      307.09572      205.89125     -23839.069    
    174000   1.149904       297.45605      232.8741      -23983.229    
    175000   1.1484726      294.72708      70.264965     -24011.092    
    176000   1.1488063      290.80042      137.39961     -24129.939    
    177000   1.1538947      297.35696      202.96259     -23929.78     
    178000   1.1556385      299.17728     -310.84075     -24033.881    
    179000   1.1500492      294.88324      550.89579     -23985.382    
    180000   1.1537946      296.94604     -25.068392     -23964.47     
    181000   1.16187        297.3057       787.5722      -24023.039    
    182000   1.1480228      314.79305      151.77219     -23876.59     
    183000   1.1410507      289.26131     -1595.1942     -24002.955    
    184000   1.1452552      291.22085      282.39196     -24080.628    
    185000   1.1577532      294.2161       220.85714     -24072.526    
    186000   1.1492524      291.70285      599.27653     -24063.177    
    187000   1.1561659      300.95247      944.56445     -24060.28     
    188000   1.1541066      294.47352     -16.478875     -24050.129    
    189000   1.1611362      281.85273      1321.3647     -24114.896    
    190000   1.1515549      305.69345      12.28331      -23919.732    
    191000   1.1608521      299.44335      445.08205     -24071.264    
    192000   1.1573835      297.46426      695.88734     -23934.744    
    193000   1.1559283      294.89707      822.96224     -23953.307    
    194000   1.1436025      290.48291      783.93462     -24025.586    
    195000   1.1535903      294.82527      22.633513     -24059.214    
    196000   1.1380088      293.13114     -520.36167     -24063.66     
    197000   1.1458374      297.89826      32.680547     -23978.968    
    198000   1.1461851      293.12632     -110.59788     -24056.929    
    199000   1.1513681      290.50551     -541.002       -24031.347    
    200000   1.1499965      301.72667     -754.65649     -24016.899    
    201000   1.1651449      296.159        848.96046     -24095.21     
    202000   1.1546262      299.23264      253.20229     -24086.303    
    203000   1.1583844      297.65797      243.24888     -24054.028    
    204000   1.1565138      296.32799     -302.36682     -23987.145    
    205000   1.1479368      294.47942      70.427793     -24013.405    
    206000   1.1620871      291.34044      379.61844     -24024.104    
    207000   1.1612174      293.27038      425.53307     -23977.99     
    208000   1.1578273      299.97317      508.64149     -23985.575    
    209000   1.1508901      296.66855      486.72791     -24007.356    
    210000   1.1584685      291.42907      315.58661     -24024.836    
    211000   1.1602103      292.46454      260.14782     -23999.923    
    212000   1.1645306      298.5933       388.79808     -23961.258    
    213000   1.1551811      293.73898      525.0327      -24061.082    
    214000   1.1651708      295.33507      1027.2725     -24036.386    
    215000   1.1551331      296.73945      113.54602     -23894.623    
    216000   1.1537897      298.40983      909.88133     -23952.872    
    217000   1.1547146      300.81438     -442.86146     -23920.272    
    218000   1.1484027      291.78538     -92.8907       -24039.841    
    219000   1.1381444      290.96658     -439.38699     -23953.765    
    220000   1.1457894      296.07169      43.191822     -24043.088    
    221000   1.1530609      292.7022       78.117329     -24059.987    
    222000   1.139599       310.37174     -122.14153     -23919.134    
    223000   1.1577439      295.79572     -201.26585     -23989.613    
    224000   1.1507881      304.55092     -595.0379      -23974.629    
    225000   1.1477715      295.51135     -226.82273     -24055.072    
    226000   1.1506932      298.6633       604.6326      -23946.1      
    227000   1.1524036      300.57349      434.58214     -23990.716    
    228000   1.1542532      302.62095      597.99261     -24029.035    
    229000   1.1518349      294.05128     -865.3281      -24094.621    
    230000   1.1501405      295.96827      59.238179     -24060.625    
    231000   1.1424453      294.89644      447.74336     -23883.319    
    232000   1.1507984      286.80779      447.6166      -24050.977    
    233000   1.149133       298.27637      222.49069     -23990.156    
    234000   1.1537093      297.75637     -866.64416     -23971.826    
    235000   1.1530135      292.95642      322.19664     -24015.934    
    236000   1.1518615      280.73222     -644.84763     -24075.135    
    237000   1.1519161      296.84731      63.490072     -24028.565    
    238000   1.1433748      299.62937     -482.14409     -23977.979    
    239000   1.1537247      307.53506     -181.14731     -24000.394    
    240000   1.15561        296.65363      523.35962     -24012.349    
    241000   1.1540221      292.19929      1.7179953     -24137.962    
    242000   1.1463189      295.92672     -729.17881     -24002.046    
    243000   1.1458831      305.83903      54.766434     -23921.626    
    244000   1.1545346      292.28419     -101.11958     -24066.385    
    245000   1.1399101      298.82835     -579.05753     -23906.692    
    246000   1.1469036      295.13506     -1176.9657     -24009.623    
    247000   1.1339346      294.68462     -317.74244     -23997.816    
    248000   1.1475234      296.25955     -1246.6984     -24005.049    
    249000   1.1484097      290.08444      279.16153     -24025.37     
    250000   1.1533864      302.53054      253.19149     -23945.097    
    251000   1.1536545      289.8738      -286.6858      -24087.359    
    252000   1.1586563      304.63275      757.70745     -24056.589    
    253000   1.1485924      303.03086      85.757981     -23992.348    
    254000   1.1643812      298.44952      883.63162     -24028.937    
    255000   1.1507519      300.08865      17.907484     -23994.373    
    256000   1.1573365      297.23858     -258.729       -23976.317    
    257000   1.1492937      301.27954     -356.21656     -23993.114    
    258000   1.1542209      301.88728     -262.6859      -23992.945    
    259000   1.1494667      299.00128      470.58752     -24011.721    
    260000   1.1589024      303.85504      1414.4585     -24024.507    
    261000   1.1474007      301.45906     -296.46687     -24017.002    
    262000   1.1472047      297.37731      113.97959     -24039.692    
    263000   1.1593432      304.71199      681.05136     -23959.712    
    264000   1.1503165      301.66795     -537.6545      -23979.095    
    265000   1.1364461      295.38378      410.10767     -23952.163    
    266000   1.1504917      300.51683     -460.13154     -24020.328    
    267000   1.1502771      292.95137     -266.1724      -24084.875    
    268000   1.1500676      300.3642       72.8293       -23973.023    
    269000   1.1533316      302.13256     -47.687401     -23959.28     
    270000   1.1474372      295.63837      440.09586     -24018.837    
    271000   1.1500616      282.10073     -835.90931     -24006.958    
    272000   1.1481654      294.80057      53.561302     -23939.676    
    273000   1.1559942      292.3806      -138.15613     -24057.8      
    274000   1.1579259      295.27343     -262.97945     -24064.453    
    275000   1.1521373      302.53099     -488.18893     -23967.536    
    276000   1.1582188      292.33221      940.1919      -23920.133    
    277000   1.1517784      283.7515      -40.669671     -24029.236    
    278000   1.1572844      300.39734      402.69141     -24025.525    
    279000   1.1554987      291.7533       585.34467     -23968.973    
    280000   1.1485369      289.40442     -137.29        -23985.48     
    281000   1.1514649      290.51065     -220.39138     -23973.529    
    282000   1.1483327      292.23315     -209.20854     -24018.067    
    283000   1.1534761      296.36524      417.03794     -23961.177    
    284000   1.1421536      286.20793     -852.1176      -24014.119    
    285000   1.147858       295.94673      244.97265     -23986.734    
    286000   1.1361291      297.83653     -547.4357      -23991.538    
    287000   1.1437389      283.50854     -238.27316     -24100.936    
    288000   1.1487821      294.49465     -219.86303     -23966.116    
    289000   1.1480463      293.95658      621.50436     -23975.854    
    290000   1.1532655      302.70559      22.681852     -23977.365    
    291000   1.1396098      302.31284     -1035.983      -23922.039    
    292000   1.1460374      293.5211      -659.42392     -24031.131    
    293000   1.1402969      300.81958     -390.59198     -23930.1      
    294000   1.1552623      302.31531      462.21325     -23991.19     
    295000   1.1494911      296.61387     -563.95575     -24036.364    
    296000   1.1493191      299.24939     -811.60686     -24015.04     
    297000   1.1638057      295.16389      124.14902     -23963.323    
    298000   1.1492314      297.6469       375.40897     -23957.259    
    299000   1.1493285      292.04968      379.26977     -23963.263    
    300000   1.1596141      292.00043      413.5732      -23979.968    
    301000   1.1443346      298.5877      -792.97058     -23971.221    
    302000   1.1431972      293.68135     -231.14774     -23993.09     
    303000   1.151944       296.75908     -429.78474     -23940.408    
    304000   1.1645284      298.73626      133.86755     -23957.084    
    305000   1.149886       297.21367      180.76052     -24013.641    
    306000   1.1599953      296.43301      251.77576     -24031.54     
    307000   1.1394376      297.82399     -161.28458     -23970.959    
    308000   1.1523422      306.61596      894.59391     -23929.243    
    309000   1.15422        297.24495     -655.37102     -24065.144    
    310000   1.1515012      307.59688      260.94538     -23928.117    
    311000   1.1554557      298.09136      73.923585     -24019.543    
    312000   1.1458083      298.26345     -451.13117     -23972.558    
    313000   1.1489833      298.33836     -299.07926     -24069.622    
    314000   1.1533714      299.5714      -295.08922     -24091.241    
    315000   1.1544649      295.59573      105.99603     -23972.24     
    316000   1.1470681      293.64232     -680.17723     -24067.9      
    317000   1.1464194      298.35179     -557.67327     -23952.426    
    318000   1.1430374      286.90092     -606.15433     -24076.473    
    319000   1.1522961      300.9347       15.777066     -23992.401    
    320000   1.1559175      302.79763      214.11278     -23987.159    
    321000   1.1626145      306.32158      845.70777     -24023.946    
    322000   1.1584382      299.58518      608.98635     -23996.234    
    323000   1.1465792      292.20169      167.30212     -23984.43     
    324000   1.1375326      292.90473     -985.62284     -24006.961    
    325000   1.1520572      289.70469      179.11437     -24114.83     
    326000   1.1583465      295.38432      254.22221     -24090.811    
    327000   1.1526342      297.97896      643.89444     -24002.114    
    328000   1.1493698      287.214        164.22466     -24074.271    
    329000   1.1622092      295.79398      523.166       -24002.241    
    330000   1.1586077      296.42747     -103.95642     -24101.134    
    331000   1.164277       296.95527      193.51199     -23970.224    
    332000   1.1410999      290.84604      16.035066     -23990.89     
    333000   1.149776       297.35483      30.460436     -23893.111    
    334000   1.1527023      301.86481     -29.438003     -23980.059    
    335000   1.1583087      292.75991      1041.9129     -24011.623    
    336000   1.1617245      301.03932      330.6846      -23931.422    
    337000   1.1450142      301.73561     -826.73295     -23952.501    
    338000   1.1544498      291.98511      768.25206     -24078.401    
    339000   1.1683873      296.43496     -196.34254     -24008.743    
    340000   1.1644507      288.90339      729.16244     -24056.992    
    341000   1.1600973      304.90598      364.18354     -23927.672    
    342000   1.1516638      287.62954      868.37565     -24010.456    
    343000   1.1487138      295.32265     -709.59136     -24063.448    
    344000   1.1467808      296.90015     -18.830614     -23963.12     
    345000   1.1449312      306.15103     -216.85021     -23988.263    
    346000   1.1403029      298.70548     -272.08877     -24010.808    
    347000   1.1297156      303.77718     -774.2181      -23810.912    
    348000   1.1455388      300.0475       225.89216     -23995.386    
    349000   1.1632891      300.30865      743.03596     -23965.869    
    350000   1.1444473      298.0649      -23.543807     -23970.613    
    351000   1.1486761      294.95165     -803.75079     -24047.989    
    352000   1.1508358      296.87684      845.98919     -23944.958    
    353000   1.1504608      297.4508       381.72783     -23928.835    
    354000   1.1491768      292.48147      104.05292     -23989.04     
    355000   1.1520159      291.42572     -229.59461     -24007.987    
    356000   1.1432454      294.05532     -1140.4914     -24062.264    
    357000   1.1455802      297.8617      -98.688321     -24057.205    
    358000   1.1482748      298.31126     -291.56766     -23999.913    
    359000   1.154401       293.38082      457.49826     -24060.143    
    360000   1.147288       292.50514      92.693349     -23924.064    
    361000   1.14902        300.68173     -971.39171     -24069.792    
    362000   1.161739       292.39717     -99.268249     -24104.839    
    363000   1.1503637      290.8923      -743.54387     -24032.62     
    364000   1.1380854      287.34466     -962.41096     -24000.309    
    365000   1.1438259      286.46201     -192.65383     -24017.137    
    366000   1.1530025      295.66822      162.30437     -24055.02     
    367000   1.1656218      292.71567      1299.6734     -24027.105    
    368000   1.1428397      291.12222     -229.48786     -23985.716    
    369000   1.1473345      294.47722      416.03423     -23974.308    
    370000   1.159695       296.42688     -646.80997     -24060.309    
    371000   1.147492       307.87597      23.972782     -23957.99     
    372000   1.1501265      299.66486     -66.190244     -24070.973    
    373000   1.1313015      294.41651     -868.14074     -24010.116    
    374000   1.1420638      302.6286      -352.7096      -23955.135    
    375000   1.1421565      292.18148     -256.67889     -24040.558    
    376000   1.1490515      294.87373     -522.92248     -23961.666    
    377000   1.1528038      297.14819     -201.33612     -23975.638    
    378000   1.1536811      298.2941       160.96083     -23911.436    
    379000   1.1536897      290.60312     -52.314668     -23961.39     
    380000   1.1388155      283.69495     -1197.1325     -24082.471    
    381000   1.137818       296.96634     -81.334817     -23905.132    
    382000   1.1352671      303.17421     -644.97241     -23965.145    
    383000   1.137381       290.60343     -87.453258     -24008.081    
    384000   1.1520193      290.70423     -323.91758     -24003.729    
    385000   1.1470154      298.29224     -278.48036     -23996.241    
    386000   1.1566556      307.39649     -123.17369     -24038.995    
    387000   1.1515457      290.98503     -190.68071     -24044.249    
    388000   1.1632061      295.23197      772.48149     -24105.216    
    389000   1.1565769      297.36454      131.98647     -24018.675    
    390000   1.14796        302.08092      255.49274     -23984.71     
    391000   1.1419245      284.93304     -773.47168     -24087.525    
    392000   1.1519892      293.75394      244.76272     -24015.685    
    393000   1.1590823      294.3184       297.78809     -24035.912    
    394000   1.1578228      292.07458     -162.51006     -23947.738    
    395000   1.1576102      310.49963      103.92492     -23908.014    
    396000   1.1594588      303.05043     -119.85122     -23976.14     
    397000   1.153209       307.14597      889.91116     -23936.762    
    398000   1.1494429      296.64307      102.97917     -24067.486    
    399000   1.1497642      297.52191      499.05634     -24072.836    
    400000   1.154836       289.9076       196.04239     -24056.35     
    401000   1.1562638      297.2021       912.80184     -23976.978    
    402000   1.1593249      298.79637      744.98373     -24007.819    
    403000   1.151029       301.42122      294.39493     -24008.326    
    404000   1.1587851      305.07237      686.34535     -23883.561    
    405000   1.1603215      296.05094      1049.1169     -24014.128    
    406000   1.1533001      295.29372     -79.616362     -24071.469    
    407000   1.1454583      297.14487     -182.34189     -24027.627    
    408000   1.1477209      291.87381     -832.30283     -24035.958    
    409000   1.1553199      288.98683     -237.44934     -24126.67     
    410000   1.1512562      296.67754     -450.77565     -23944.781    
    411000   1.150487       292.44721      444.0619      -23952.603    
    412000   1.1547831      299.70944      873.94438     -23928.25     
    413000   1.1535406      294.21057      160.59729     -24040.139    
    414000   1.1560813      303.00724      181.75703     -24008.928    
    415000   1.1527439      297.19772     -593.71995     -24013.372    
    416000   1.1468732      293.29571     -59.838178     -24030.062    
    417000   1.1524666      290.50746     -99.043485     -24067.005    
    418000   1.1451242      296.54111     -278.7705      -23912.929    
    419000   1.132878       292.42784     -690.34591     -24002.486    
    420000   1.142732       298.03102     -352.26813     -24002.655    
    421000   1.1500112      299.34697      347.22756     -23904.807    
    422000   1.1509442      289.81173     -1060.7373     -24098.404    
    423000   1.137403       299.19084     -498.7666      -24029.813    
    424000   1.1498412      301.99674      855.38598     -24008.422    
    425000   1.1438902      295.92607     -435.35025     -24037.893    
    426000   1.1475567      290.17693      111.7022      -24082.811    
    427000   1.1403355      298.08313      43.3202       -23946.895    
    428000   1.1506975      298.27207      438.77236     -24015.545    
    429000   1.148809       293.39271      274.89412     -24040.092    
    430000   1.1478836      288.21869     -151.94379     -24016.87     
    431000   1.151782       297.37312      920.8989      -24093.428    
    432000   1.1485602      294.74733     -101.31676     -24052.448    
    433000   1.1426505      300.37885      228.18027     -23922.206    
    434000   1.1459666      296.94022     -118.31426     -23974.188    
    435000   1.1425418      296.61413     -896.93312     -24010.543    
    436000   1.1489842      294.69903      433.15031     -23986.262    
    437000   1.1480118      299.36229     -190.36342     -23988.125    
    438000   1.1588799      296.24279      301.62302     -23986.105    
    439000   1.162161       289.30001      489.15678     -24090.897    
    440000   1.1374949      290.63771     -237.89569     -24075.752    
    441000   1.1452312      292.6806       694.69107     -23942.872    
    442000   1.1500707      297.47285      116.70306     -23983.169    
    443000   1.1550035      298.08983      84.60241      -24047.258    
    444000   1.1512064      289.66234     -8.1469151     -24121.333    
    445000   1.1487996      291.01863      10.89585      -24092.942    
    446000   1.1486939      300.98539      89.185047     -24011.907    
    447000   1.1510839      289.48075      138.59685     -24028.684    
    448000   1.1547634      294.05221      449.09635     -24046.144    
    449000   1.1485246      298.41946      254.64065     -24077.761    
    450000   1.1617764      300.38685      580.69566     -24074.685    
    451000   1.156992       297.56083      755.67439     -23992.276    
    452000   1.1546392      294.18024     -356.75942     -24070.493    
    453000   1.1541438      305.76727      497.64168     -23968.931    
    454000   1.149985       293.48219     -327.28511     -24040.65     
    455000   1.1509705      294.18708      431.41808     -24042.992    
    456000   1.155064       298.23677      440.04589     -24029.392    
    457000   1.1544637      294.65077     -256.54745     -23977.685    
    458000   1.1491299      296.90751      283.8257      -23960.375    
    459000   1.1403544      294.47661     -1332.0602     -23980.765    
    460000   1.1503708      298.59024      483.84466     -23953.652    
    461000   1.1368234      296.34205     -248.03776     -23958.868    
    462000   1.1442359      292.62771     -493.52656     -24045.73     
    463000   1.139041       291.35195     -235.34994     -23976.306    
    464000   1.1473823      294.3199      -145.47024     -24003.245    
    465000   1.1402273      285.75726     -529.41143     -24109.659    
    466000   1.144878       292.17231     -93.705805     -24075.6      
    467000   1.1484672      301.69089      36.059042     -23968.418    
    468000   1.1471363      290.67821     -351.67433     -24005.05     
    469000   1.1463446      298.76136      312.72681     -23909.9      
    470000   1.1442822      294.56464     -217.55345     -23979.172    
    471000   1.1518542      293.72929     -684.85308     -23999.583    
    472000   1.1489976      291.84736      238.65345     -24077.925    
    473000   1.1403607      297.43279     -1092.6072     -23978.93     
    474000   1.1593861      300.09551      238.83382     -23919.13     
    475000   1.1435282      294.59114     -197.49107     -24094.045    
    476000   1.1393641      287.08218     -649.05473     -24118.454    
    477000   1.1543566      293.90796      912.09063     -24002.256    
    478000   1.1430626      294.4149       304.1292      -23935.341    
    479000   1.1530769      307.85383      353.47608     -23895.418    
    480000   1.1492928      301.28036     -377.04614     -23916.794    
    481000   1.1471649      297.93457      133.44049     -23945.641    
    482000   1.152393       294.31424      126.10258     -24033.763    
    483000   1.1556971      293.5593       986.04658     -24018.47     
    484000   1.1437677      289.25117     -81.596371     -24049.629    
    485000   1.1585195      294.64275      179.86134     -24077.182    
    486000   1.1591004      299.06171      477.49051     -23971.328    
    487000   1.1506843      294.98921      309.2934      -24057.75     
    488000   1.1494602      300.45229     -652.63438     -23984.349    
    489000   1.1645757      301.04948      1100.9417     -23951.127    
    490000   1.1661704      293.77737      70.105482     -24051.236    
    491000   1.1509163      290.73969     -623.54939     -24073.525    
    492000   1.1530519      304.69758     -482.81396     -24050.566    
    493000   1.1417058      294.98435     -704.54663     -23990.453    
    494000   1.1533567      291.87271      169.19384     -24170.317    
    495000   1.1448615      294.75425     -433.63791     -24010.956    
    496000   1.1438496      299.81263     -132.55651     -24006.152    
    497000   1.1400179      299.94609      162.27693     -23943.67     
    498000   1.156662       304.457        293.96342     -23979.987    
    499000   1.1471357      288.69705     -75.52624      -24086.39     
    500000   1.1532869      304.51107      702.8532      -23910.984    
    501000   1.1539041      301.48126     -158.98723     -23954.637    
    502000   1.1494258      290.19967     -295.51675     -24068.47     
    503000   1.1524483      301.64241      144.95275     -24080.605    
    504000   1.1548012      298.99462      365.56157     -24047.315    
    505000   1.149151       294.12891      622.57462     -24064.84     
    506000   1.1443866      298.95595     -1063.7736     -24002.316    
    507000   1.144571       293.74919      630.17527     -24033.889    
    508000   1.1512648      289.75506     -352.40741     -24150.256    
    509000   1.1577681      299.8373      -388.89913     -24041.983    
    510000   1.1572087      295.31951     -644.51502     -24099.197    
    511000   1.1570451      304.58998      1158.0284     -23900.502    
    512000   1.1547848      300.64803     -331.25138     -23965.287    
    513000   1.160276       295.5279       422.94597     -24087.24     
    514000   1.1573177      291.37458      393.34833     -24036.515    
    515000   1.1605102      300.5587       618.87264     -23977.673    
    516000   1.1620553      287.46387      384.38797     -24098.05     
    517000   1.1568423      296.45708     -129.93744     -24010.495    
    518000   1.1427009      293.34951     -530.06276     -24011.988    
    519000   1.1430149      295.38797     -63.601576     -24098.164    
    520000   1.1494414      304.14798     -55.669955     -24010.669    
    521000   1.143501       297.02513     -991.96329     -24012.218    
    522000   1.1488511      302.12172      155.71139     -23936.603    
    523000   1.1546919      297.63242     -410.47937     -24020.632    
    524000   1.1466961      304.93266      21.297373     -24088.701    
    525000   1.1460529      290.69697     -716.01925     -23939.134    
    526000   1.1394851      297.53877     -487.02351     -24022.786    
    527000   1.1491432      300.37693     -242.05903     -23912.383    
    528000   1.1516715      293.40987     -126.31231     -23938.418    
    529000   1.1515658      298.09303     -991.05467     -23975.804    
    530000   1.145431       301.45697      241.13238     -24025.42     
    531000   1.1498349      297.88906     -846.30901     -23905.886    
    532000   1.1503407      293.04796     -469.36747     -24039.603    
    533000   1.1504908      295.03481      583.48075     -24064.393    
    534000   1.1559456      279.82253     -7.6093395     -24140.969    
    535000   1.1492262      297.67985     -56.280892     -24025.137    
    536000   1.1494759      294.21629     -83.0585       -24038.099    
    537000   1.146513       288.37089     -954.09371     -24040.428    
    538000   1.1484872      299.80453     -134.2959      -24011.469    
    539000   1.1489667      284.02873     -275.02624     -24048.814    
    540000   1.1524329      297.3433      -68.555693     -24028.713    
    541000   1.1498875      301.11414      484.94269     -24042.975    
    542000   1.1530904      295.18138      194.57873     -24038.963    
    543000   1.1553463      305.65595      23.914179     -23968.492    
    544000   1.1652102      306.12051      654.04384     -24058.642    
    545000   1.1561471      295.07744      851.53527     -23972.725    
    546000   1.1552723      297.89597     -572.21337     -23973.999    
    547000   1.148634       296.79057      532.62649     -23976.234    
    548000   1.1466028      298.26357     -32.854803     -24049.106    
    549000   1.1457387      291.10108     -547.90448     -24041.456    
    550000   1.1375781      293.42439     -120.21471     -23966.515    
    551000   1.1387811      288.2224      -254.89042     -24010.79     
    552000   1.1425423      294.882        133.60304     -23922.474    
    553000   1.1496522      297.94703      244.86954     -24010.194    
    554000   1.1515975      294.17452      341.7055      -24031.823    
    555000   1.1605236      302.90107      1070.4723     -23972.559    
    556000   1.1532358      302.23325      704.80907     -23937.174    
    557000   1.1445689      303.4299       462.76886     -23970.747    
    558000   1.1394504      296.40216     -616.08356     -23989.022    
    559000   1.1526099      301.68978      496.41485     -23931.513    
    560000   1.1573271      296.50113     -189.87637     -24038.975    
    561000   1.1624571      293.95231      405.07322     -24058.992    
    562000   1.1583429      291.60133      962.71829     -24044.591    
    563000   1.1450763      299.12661     -184.14611     -24041.857    
    564000   1.1536201      300.18572      568.63114     -24002.699    
    565000   1.1620741      295.6336       256.43431     -24039.289    
    566000   1.1485054      290.97537      58.567514     -24029.424    
    567000   1.1439615      288.72088      136.18078     -23992.765    
    568000   1.1629626      292.56452      666.7058      -24001.128    
    569000   1.1669054      291.94062      331.64111     -24092.157    
    570000   1.1597567      293.0306       494.51526     -24019.829    
    571000   1.1456464      297.06615     -669.34477     -23928.081    
    572000   1.144047       292.30606     -636.24256     -24005.018    
    573000   1.1448393      293.77546     -480.26417     -23989.096    
    574000   1.1507177      299.81821     -1017.2874     -23974.156    
    575000   1.1630814      293.88254      249.60181     -24041.437    
    576000   1.1518568      297.5825       86.214922     -23938.702    
    577000   1.1472471      295.17008      32.171358     -23937.485    
    578000   1.1617334      308.30918      377.154       -23850.651    
    579000   1.1454306      293.74075     -303.69393     -23887.057    
    580000   1.142561       296.64065     -391.60636     -23907.27     
    581000   1.163828       291.83535     -97.573827     -24058.427    
    582000   1.1415153      300.19709      110.60053     -23994.961    
    583000   1.1527875      294.2902       184.61818     -24054.129    
    584000   1.148125       291.50432     -266.95042     -24076.83     
    585000   1.1582083      299.83109      97.708902     -24090.377    
    586000   1.148431       303.60887      1050.9156     -24091.34     
    587000   1.1454157      297.05646     -118.14433     -24061.695    
    588000   1.1477567      298.7663      -161.45717     -24027.543    
    589000   1.1416405      299.34232     -443.35534     -23956.132    
    590000   1.1326466      296.89424     -1091.8317     -23985.312    
    591000   1.1410653      294.04623     -216.39237     -24039.46     
    592000   1.152066       298.10543     -980.73269     -23997.507    
    593000   1.143754       297.60621      71.108174     -24026.471    
    594000   1.1477738      296.1488       269.82405     -24021.594    
    595000   1.158113       294.95782      854.41725     -23997.077    
    596000   1.1502655      292.04856     -516.15041     -24084.191    
    597000   1.1494227      295.58524      445.6617      -23985.59     
    598000   1.1515056      302.91901      125.45932     -24040.492    
    599000   1.1448772      288.60677      212.45031     -23981.702    
    600000   1.150867       298.70473      488.92734     -23944.175    
    601000   1.1467247      296.13809     -0.71099935    -24079.696    
    602000   1.1552536      299.16211     -20.989094     -24089.192    
    603000   1.1580909      304.25827      515.18373     -23958.067    
    604000   1.1538466      291.03711      791.8041      -24051.301    
    605000   1.158662       290.89595      242.92136     -24162.573    
    606000   1.149971       298.99458     -294.10714     -23965.697    
    607000   1.1493087      297.79469      232.77033     -24023.608    
    608000   1.1397755      290.53605      28.172034     -24014.24     
    609000   1.1458557      298.85559      306.00962     -23948.276    
    610000   1.1357998      304.28693     -209.19322     -23911.896    
    611000   1.1412789      296.07544     -849.87659     -23929.654    
    612000   1.1380152      302.71315     -10.072225     -23965.68     
    613000   1.1466169      297.06403      304.36382     -23991.747    
    614000   1.1469256      305.97909     -596.75194     -23942.035    
    615000   1.1562602      295.48591      479.39888     -23945.181    
    616000   1.1496228      291.79941      462.39176     -24017.939    
    617000   1.1608188      299.05511      1339.9252     -24065.369    
    618000   1.1587495      299.19432      341.41849     -23958.081    
    619000   1.1624746      293.33224      549.75062     -24037.312    
    620000   1.1492265      295.54308      533.05319     -23909.544    
    621000   1.1558193      290.07033      618.15637     -24015.156    
    622000   1.1602671      294.14838      290.61644     -23981.106    
    623000   1.1386003      290.23178     -561.09673     -24002.117    
    624000   1.1562587      302.18398      568.10072     -23956.524    
    625000   1.1525949      286.54342      363.66076     -24113.818    
    626000   1.1432157      297.99014     -244.84437     -23998.386    
    627000   1.1409338      297.8601       81.459586     -23932.532    
    628000   1.1517931      300.21772     -580.72596     -23997.773    
    629000   1.1484516      298.54719      358.01163     -23881.68     
    630000   1.154325       313.45748      249.62904     -23847.515    
    631000   1.1420435      294.99332      462.1092      -23983.269    
    632000   1.1415981      289.52511     -557.8836      -24080.403    
    633000   1.1519409      291.8513       1223.7401     -24073.281    
    634000   1.1436194      297.54403      160.84064     -23917.732    
    635000   1.1467277      292.8315       67.088107     -23922.799    
    636000   1.1457599      297.36215     -735.45659     -24025.756    
    637000   1.1452996      304.29537      225.06422     -23916.453    
    638000   1.1479204      288.24158     -76.991915     -24050.21     
    639000   1.144282       293.69858      71.553348     -23909.637    
    640000   1.1373265      298.86182     -1062.2735     -23986.922    
    641000   1.1513317      292.95998     -718.35966     -24068.325    
    642000   1.1574876      288.97301      154.24229     -24082.173    
    643000   1.1540169      292.19538      429.19318     -24047.07     
    644000   1.1392509      292.78373     -199.95903     -24082.762    
    645000   1.1497192      296.64872     -391.82617     -24027.897    
    646000   1.1474572      300.27997     -494.89458     -24016.413    
    647000   1.1509708      303.40854     -250.03319     -23960.033    
    648000   1.14503        289.92723     -947.72638     -24081.611    
    649000   1.1475211      289.83384      500.70958     -24108.865    
    650000   1.1540269      294.77062     -213.90135     -24000.104    
    651000   1.1538374      300.01244     -113.10148     -24007.574    
    652000   1.1577459      288.31061      609.24246     -24072.676    
    653000   1.1532368      305.53429     -668.27851     -24007.775    
    654000   1.1505863      294.67976     -156.45873     -24022.148    
    655000   1.1567578      293.44762     -538.55289     -24030.381    
    656000   1.1446736      283.9673      -1230.4435     -24119.662    
    657000   1.1575545      300.77035      738.41324     -24038.37     
    658000   1.160519       300.27507      278.25009     -23962.006    
    659000   1.1583208      296.64292      754.6884      -24026.973    
    660000   1.1601767      299.29401      1102.4633     -24099.701    
    661000   1.1545396      309.90916      804.44115     -23980.369    
    662000   1.1463666      294.09698     -530.25902     -24011.669    
    663000   1.1351585      289.10255     -393.23875     -24048.894    
    664000   1.1415422      295.96415     -735.41419     -23962.295    
    665000   1.1486504      293.0512       403.93067     -23885.255    
    666000   1.1404246      293.3049      -109.77024     -23966.522    
    667000   1.1482846      299.70925     -56.967955     -23986.97     
    668000   1.1477785      296.74327     -490.34595     -23923.849    
    669000   1.1564387      300.07456      570.93669     -23897.324    
    670000   1.1559165      302.32758      11.133712     -23923.98     
    671000   1.1504547      293.48996     -140.89047     -24027.788    
    672000   1.1476035      291.1289       358.73096     -24067.707    
    673000   1.1536685      291.11777     -247.42007     -23959.977    
    674000   1.1463881      296.62232      215.81287     -23986.756    
    675000   1.1565363      294.98687     -412.70659     -24081.075    
    676000   1.1516448      290.29683     -505.96065     -24101.802    
    677000   1.1386344      300.12977     -170.49657     -23959.094    
    678000   1.1454474      294.68349      292.19232     -23994.939    
    679000   1.1480637      301.39229      174.98134     -23988.088    
    680000   1.1459188      298.78667      590.63543     -24003.768    
    681000   1.1494419      286.51024     -145.58553     -24119.702    
    682000   1.1400068      287.28815     -366.32833     -24170.193    
    683000   1.1481836      287.85229     -304.29348     -24113.153    
    684000   1.15431        293.49616      143.00049     -24091.648    
    685000   1.155611       297.3922       159.51413     -23906.689    
    686000   1.1495156      295.22066      168.88434     -24004.719    
    687000   1.137211       292.5989      -19.616684     -24029.26     
    688000   1.1470391      304.40291      354.60591     -23936.093    
    689000   1.1562876      294.18849     -369.22962     -23955.529    
    690000   1.1591076      289.35284      349.65241     -24045.321    
    691000   1.1546557      295.39946      818.24192     -23973.85     
    692000   1.1400648      293.07935     -129.22518     -23976.799    
    693000   1.1430667      296.42051      478.81946     -24000.348    
    694000   1.1449107      294.3238       121.45379     -24053.402    
    695000   1.1495525      293.70045      92.524856     -24064.077    
    696000   1.14661        294.86888      265.96376     -24054.367    
    697000   1.149358       299.04673      131.52238     -23864.617    
    698000   1.1497861      293.31986      187.16429     -24065.782    
    699000   1.1524686      286.92639      268.99721     -24156.737    
    700000   1.1493427      297.6648       133.73751     -24000.293    
    701000   1.1552122      294.65486      286.09962     -24031.383    
    702000   1.1487271      298.78096     -267.3181      -24021.604    
    703000   1.1547758      292.4276       593.3093      -24034.987    
    704000   1.1485987      298.00106     -454.61987     -24055.825    
    705000   1.1408343      295.49437     -422.03628     -24088.442    
    706000   1.1476326      298.80851      143.00493     -24012.871    
    707000   1.1488075      296.33389      119.13698     -24071.312    
    708000   1.1553344      306.08896     -94.664303     -23992.809    
    709000   1.1401093      295.49188     -900.22397     -24087.278    
    710000   1.1586699      301.48523      395.34569     -23898.012    
    711000   1.1479661      302.09018      111.40027     -24047.033    
    712000   1.1543188      303.15515     -250.19726     -23888.593    
    713000   1.1585008      293.092        292.71197     -23931.502    
    714000   1.1624957      295.75993      462.73868     -24074.39     
    715000   1.1596504      300.95071      226.92013     -24026.154    
    716000   1.1511526      300.71899      129.43532     -23957.967    
    717000   1.1570154      299.2507      -562.70731     -23867.043    
    718000   1.1466392      300.01972     -192.6897      -23937.62     
    719000   1.140763       300.39664     -575.86633     -23997.47     
    720000   1.1502162      301.42249      348.98933     -23979.543    
    721000   1.1495711      299.77004      569.79668     -23906.562    
    722000   1.153349       303.44316      667.19561     -23942.832    
    723000   1.1474206      292.03148      56.901355     -24026.492    
    724000   1.1460076      291.82222     -439.831       -24017.165    
    725000   1.1439064      302.4147      -147.55434     -23986.542    
    726000   1.1485398      306.05456     -889.6832      -23991.251    
    727000   1.1432842      298.45568     -399.4571      -23874.566    
    728000   1.14673        297.95686      197.99154     -24028.921    
    729000   1.1470872      290.29742     -227.1881      -24027.019    
    730000   1.1536468      297.20638     -777.61239     -23999.005    
    731000   1.1500553      295.89559      52.72774      -24069.673    
    732000   1.1417697      295.54007     -819.67701     -24027.788    
    733000   1.1580494      295.12779     -149.34554     -24048.74     
    734000   1.1548855      293.76518     -408.73173     -24041.419    
    735000   1.1568179      294.47973     -213.09055     -24040.117    
    736000   1.1399255      304.40813     -102.04205     -23975.059    
    737000   1.1551225      298.71537      706.71507     -24030.837    
    738000   1.1450164      304.19559     -115.2604      -23990.927    
    739000   1.1489398      295.98609     -149.23129     -24026.082    
    740000   1.1457407      296.30674     -20.589242     -24064.773    
    741000   1.1613964      298.05983      382.5847      -24088.097    
    742000   1.1655393      304.2051       522.35877     -23989.665    
    743000   1.1586101      292.41718      568.12407     -23961.808    
    744000   1.1529534      290.81006      541.36684     -24126.213    
    745000   1.1564493      293.95072      632.24748     -24065.061    
    746000   1.1544053      302.16043     -401.4722      -23952.099    
    747000   1.1551868      303.24706     -140.65993     -23958.288    
    748000   1.1590775      303.14062      800.58931     -23964.945    
    749000   1.1498713      296.03873     -1172.9822     -24022.344    
    750000   1.1508715      302.62994      292.32622     -24004.457    
    751000   1.1494918      294.18067      169.57589     -24020.85     
    752000   1.161202       296.29483      863.62315     -23944.188    
    753000   1.1588076      292.24966      264.74857     -24125.416    
    754000   1.1489368      295.56013      560.83952     -24001.132    
    755000   1.1447671      301.18818     -283.41127     -23847.284    
    756000   1.1513193      287.59909      365.25545     -24083.975    
    757000   1.1473202      303.28915     -306.84777     -24035.66     
    758000   1.1619657      301.49013     -72.531312     -23963.415    
    759000   1.1516957      295.99933      213.58489     -24003.098    
    760000   1.1557399      304.20186      578.43348     -23881.562    
    761000   1.1559258      298.14646     -264.42452     -23994.324    
    762000   1.1389433      290.5998      -853.73731     -24014.832    
    763000   1.1439919      293.47798     -137.79449     -24051.8      
    764000   1.1516795      298.03262     -343.58911     -24012.465    
    765000   1.1569459      294.65476      147.12219     -24005.811    
    766000   1.1525096      294.6405       336.40026     -23986.896    
    767000   1.156139       297.85283     -275.42699     -24030.828    
    768000   1.1522189      295.95752      196.60989     -24016.404    
    769000   1.1517095      292.49509     -375.89185     -24039.282    
    770000   1.1483624      296.28936      314.35224     -23948.63     
    771000   1.1494368      302.43295     -208.52236     -24027.687    
    772000   1.1443492      295.50875      289.03023     -24035.424    
    773000   1.1510468      293.33374     -247.87068     -24006.165    
    774000   1.1538916      296.07218     -365.67764     -23987.519    
    775000   1.1611416      293.22239      709.7124      -24094.632    
    776000   1.1546808      295.91647      50.789927     -24060.353    
    777000   1.1513191      289.28693      48.819409     -24080.733    
    778000   1.1445412      302.40846      856.60579     -23950.525    
    779000   1.1590318      299.62467      393.02172     -24078.683    
    780000   1.1545334      296.92017      36.817889     -23917.59     
    781000   1.1496539      292.09176     -153.83682     -24088.218    
    782000   1.1454163      297.71157     -310.35538     -23946.986    
    783000   1.144891       302.73975     -44.425158     -23893.922    
    784000   1.1493659      294.58748     -367.96877     -24011.39     
    785000   1.1501209      294.68318      380.35002     -24059.405    
    786000   1.1523178      299.90025     -509.34139     -24007.963    
    787000   1.1528308      289.46505     -1026.0649     -24149.295    
    788000   1.154061       297.46896      578.25668     -24046.088    
    789000   1.1556989      296.37237      16.849376     -24005.941    
    790000   1.1508502      297.17883     -14.284157     -23976.89     
    791000   1.1533512      297.09778     -429.65763     -24065.726    
    792000   1.1511436      292.95425     -82.995274     -24040.588    
    793000   1.14874        298.50318     -286.21833     -23983.316    
    794000   1.1575857      290.3785       814.13435     -24040.034    
    795000   1.1472066      288.49585     -216.52685     -24071.689    
    796000   1.1639802      302.25927      70.332026     -24000.257    
    797000   1.1585747      294.10032      635.32283     -24129.814    
    798000   1.1558241      298.42256      248.96888     -23959.273    
    799000   1.1530371      303.97352     -194.24362     -23904.74     
    800000   1.1537556      306.89143      158.47612     -24020.245    
    801000   1.1628926      301.89461      263.13401     -24009.308    
    802000   1.1563216      293.08126     -201.28142     -23955.681    
    803000   1.1637052      300.09558      1433.392      -23947.563    
    804000   1.1538405      294.34067     -114.9092      -23964.642    
    805000   1.1595607      298.34056      466.03645     -24048.315    
    806000   1.158153       298.74201     -407.77724     -24046.05     
    807000   1.1526705      299.11587     -381.43322     -24026.163    
    808000   1.1460293      292.52362     -968.6084      -23957.54     
    809000   1.1549587      287.89496     -132.25892     -24078.455    
    810000   1.1492627      299.08736      429.56759     -23933.14     
    811000   1.1464552      296.14185     -278.03755     -23966.166    
    812000   1.1472556      289.88429     -561.89594     -24109.187    
    813000   1.156679       296.79245      274.30363     -24035.491    
    814000   1.1568743      302.47844      300.15383     -23984.263    
    815000   1.1524006      295.6725       309.58494     -23979.77     
    816000   1.1460015      290.90209      303.68229     -24068.953    
    817000   1.1491339      302.87596     -366.19835     -23988.227    
    818000   1.1476749      306.05507      1038.3411     -23965.441    
    819000   1.1472117      298.29398      483.61743     -24016.32     
    820000   1.1408803      286.4081      -925.69662     -24010.224    
    821000   1.1408622      293.00115     -612.6821      -24039.114    
    822000   1.150911       292.67061     -439.29558     -24026.649    
    823000   1.1526212      299.76818     -438.92561     -23996.136    
    824000   1.1393337      293.68244     -687.34581     -24062.564    
    825000   1.1567334      299.46284     -221.12549     -24044.752    
    826000   1.1576831      295.7719      -859.06743     -24072.781    
    827000   1.1561981      302.44873      214.28092     -23949.655    
    828000   1.1582829      301.30196     -297.83348     -23975.656    
    829000   1.1571312      295.76238      188.63105     -23962.629    
    830000   1.1595746      296.91602     -529.43566     -24022.981    
    831000   1.159062       306.22301      280.76013     -23900.901    
    832000   1.1522084      299.31453      573.05222     -23959.887    
    833000   1.1506374      296.73988     -111.17288     -24045.573    
    834000   1.1482672      303.59055     -946.61944     -24002.812    
    835000   1.1486272      287.18902     -157.06924     -24060.087    
    836000   1.157675       299.07074      912.97021     -23974.907    
    837000   1.144971       291.63495     -8.3476449     -23942.395    
    838000   1.1384599      291.07318     -671.38315     -23980.742    
    839000   1.1479695      295.227        450.46672     -23958.192    
    840000   1.1453416      295.50441     -832.69381     -24012.841    
    841000   1.1609682      296.24865      1011.5245     -23946.324    
    842000   1.1508572      299.49702     -115.09365     -24074.373    
    843000   1.1512558      298.98398     -487.09867     -24053.227    
    844000   1.1561848      305.20137      35.766707     -23946.611    
    845000   1.1587162      295.31549      777.45071     -23952.52     
    846000   1.1561626      300.384        644.94849     -23990.341    
    847000   1.1623343      289.1229       772.91668     -24081.649    
    848000   1.1637284      298.16851     -106.83387     -24038.108    
    849000   1.1543469      289.94531      286.14038     -24108.513    
    850000   1.1513575      297.96007      592.01153     -23978.751    
    851000   1.1458691      303.85706     -714.30731     -23899.809    
    852000   1.1562034      301.02089      98.891382     -24064.178    
    853000   1.1491423      295.17996     -216.73912     -24033.712    
    854000   1.1409676      308.92678     -818.3498      -23918.498    
    855000   1.1364049      295.91365     -1020.1719     -24006.357    
    856000   1.1586575      300.7373       744.55771     -24183.422    
    857000   1.1525543      293.05263      122.63292     -24021.289    
    858000   1.1449326      299.61603     -115.02565     -23906.419    
    859000   1.154746       294.01181      874.89346     -24084.241    
    860000   1.1513572      292.45065      533.4302      -24085.881    
    861000   1.1426337      294.17334      719.51108     -23954.07     
    862000   1.1409812      304.5062      -19.614955     -24024.517    
    863000   1.1436682      300.12983     -371.78597     -24087.834    
    864000   1.1456195      291.87157     -568.91354     -24042.073    
    865000   1.1478685      307.22738      213.09689     -23942.911    
    866000   1.1578333      295.21698      90.521226     -23990.198    
    867000   1.163003       295.93375      426.31288     -23967.104    
    868000   1.1663681      295.9531       600.75996     -24002.676    
    869000   1.1476523      294.87751     -221.09204     -24012.001    
    870000   1.1479476      284.03751     -209.17339     -24098.804    
    871000   1.1449006      299.79118     -108.87939     -24063.632    
    872000   1.1518933      298.10959     -187.58787     -24036.688    
    873000   1.1571121      292.76174     -211.81726     -24172.631    
    874000   1.1542609      304.14162     -350.36063     -23967.67     
    875000   1.1553229      300.76293      78.307539     -23954.124    
    876000   1.1494947      296.09469      253.94435     -24084.223    
    877000   1.1505493      296.52255      29.930397     -24052.592    
    878000   1.1494042      294.70508     -28.12713      -24007.574    
    879000   1.1472599      295.66918     -288.43122     -24000.41     
    880000   1.1661411      297.88923      595.91515     -24090.658    
    881000   1.161351       285.8298       660.71142     -24197        
    882000   1.1566689      305.69575     -974.33949     -23989.737    
    883000   1.1608823      291.66322      483.81498     -24151.076    
    884000   1.1581812      292.34537     -156.64912     -24105.648    
    885000   1.1533206      303.59913      285.063       -23876.691    
[...]
  10291000   1.1514765      303.88856     -746.85283     -23938.332    
  10292000   1.1514765      293.5539       711.50049     -23929.213    
  10293000   1.1514765      287.96044     -278.55565     -24009.526    
  10294000   1.1514765      303.74625     -118.38889     -23834.078    
  10295000   1.1514765      297.93508     -359.70629     -23912.106    
  10296000   1.1514765      287.7163       461.40182     -23949.358    
  10297000   1.1514765      292.79601     -26.652551     -23974.081    
  10298000   1.1514765      290.72976     -43.825503     -23950.515    
  10299000   1.1514765      303.72338      339.03483     -23933.598    
  10300000   1.1514765      297.42847     -233.87556     -24014.101    
  10301000   1.1514765      306.31118      482.9121      -23856.316    
  10302000   1.1514765      298.43559      24.856036     -23917.554    
  10303000   1.1514765      290.83532      37.422987     -23886.904    
  10304000   1.1514765      300.53641     -272.56449     -23995.366    
  10305000   1.1514765      303.42221     -259.0519      -23921.289    
  10306000   1.1514765      282.84812     -372.27785     -24089.698    
  10307000   1.1514765      298.39495     -143.95747     -23945.05     
  10308000   1.1514765      292.49711     -89.405909     -24012.398    
  10309000   1.1514765      290.44432     -699.35059     -24112.402    
  10310000   1.1514765      292.84619     -796.29878     -24107.045    
  10311000   1.1514765      290.26325     -597.93995     -24038.356    
  10312000   1.1514765      298.57243      768.85306     -23994.054    
  10313000   1.1514765      305.35064      95.48067      -23927.635    
  10314000   1.1514765      293.8296      -100.83649     -24081.491    
  10315000   1.1514765      301.32878      398.90324     -23885.639    
  10316000   1.1514765      290.44334     -172.34852     -24004.723    
  10317000   1.1514765      292.51801     -114.81243     -23967.701    
  10318000   1.1514765      303.4544      -130.59349     -24044.711    
  10319000   1.1514765      288.58956      251.93437     -24058.014    
  10320000   1.1514765      293.84272      895.16036     -24039.263    
  10321000   1.1514765      287.45838     -16.629428     -24016.455    
  10322000   1.1514765      296.18609     -21.515013     -23988.796    
  10323000   1.1514765      294.67163      338.56323     -24029.83     
  10324000   1.1514765      294.66025      212.86621     -23973.365    
  10325000   1.1514765      293.1179       653.14794     -24083.6      
  10326000   1.1514765      305.2489      -367.73343     -23904.609    
  10327000   1.1514765      297.53645     -685.53185     -23963.63     
  10328000   1.1514765      295.64506      103.5194      -24026.282    
  10329000   1.1514765      295.31696     -360.55834     -24010.067    
  10330000   1.1514765      294.72388      34.965798     -24021.383    
  10331000   1.1514765      296.53769     -849.07994     -23874.736    
  10332000   1.1514765      297.98929      584.07966     -23979.395    
  10333000   1.1514765      298.55118      48.20136      -23950.337    
  10334000   1.1514765      290.14588      519.52966     -24045.512    
  10335000   1.1514765      306.54895      215.3993      -23957.911    
  10336000   1.1514765      299.73005      423.90278     -24016.471    
  10337000   1.1514765      291.92637     -717.3066      -23921.766    
  10338000   1.1514765      301.63162      73.9062       -23943.754    
  10339000   1.1514765      298.53986      154.59578     -23972.073    
  10340000   1.1514765      299.29269      399.6477      -23920.723    
  10341000   1.1514765      303.02801      55.805417     -23942.253    
  10342000   1.1514765      299.9747       796.36975     -23865.776    
  10343000   1.1514765      298.32811      759.5129      -24030.325    
  10344000   1.1514765      299.32764     -512.81359     -23958.695    
  10345000   1.1514765      297.90507      721.9001      -24015.129    
  10346000   1.1514765      296.05712     -882.54529     -23999.083    
  10347000   1.1514765      299.71025     -203.18192     -23958.101    
  10348000   1.1514765      299.50292      368.67584     -23877.662    
  10349000   1.1514765      293.79899     -141.61062     -23952.153    
  10350000   1.1514765      297.03156      48.858202     -23928.552    
  10351000   1.1514765      300.90785      87.616158     -24028.356    
  10352000   1.1514765      305.80996     -238.38399     -23925.233    
  10353000   1.1514765      295.15114      230.34453     -24025.618    
  10354000   1.1514765      299.54815     -186.28402     -24068.907    
  10355000   1.1514765      294.32398      1025.2868     -23979.297    
  10356000   1.1514765      296.73606      324.94535     -24021.071    
  10357000   1.1514765      293.38431      159.7757      -24040.316    
  10358000   1.1514765      299.71944     -92.237286     -23904.871    
  10359000   1.1514765      299.70148      164.35383     -23912.568    
  10360000   1.1514765      295.12337     -169.82368     -23951.734    
  10361000   1.1514765      289.09078     -149.98691     -24019.745    
  10362000   1.1514765      284.78403     -930.77523     -24017.884    
  10363000   1.1514765      293.10455      139.0053      -24077.106    
  10364000   1.1514765      293.80462      628.38084     -24086.171    
  10365000   1.1514765      297.05731      210.70085     -23904.378    
  10366000   1.1514765      287.40401      671.86912     -24016.621    
  10367000   1.1514765      299.98248      241.64314     -23973.496    
  10368000   1.1514765      288.79287      847.89854     -24045.781    
  10369000   1.1514765      290.04104     -486.46947     -23979.697    
  10370000   1.1514765      299.65054     -201.8812      -23980.534    
  10371000   1.1514765      303.85396     -656.72588     -23886.859    
  10372000   1.1514765      296.20392      489.93794     -23931.438    
  10373000   1.1514765      286.16309     -476.4123      -24092.866    
  10374000   1.1514765      302.6362       964.42283     -24039.475    
  10375000   1.1514765      302.507        125.23148     -23928.57     
  10376000   1.1514765      293.54924      175.07469     -23999.534    
  10377000   1.1514765      299.2809      -443.02046     -24079.201    
  10378000   1.1514765      295.04506     -656.53295     -24069.206    
  10379000   1.1514765      291.74324     -332.1922      -24055.142    
  10380000   1.1514765      290.4721      -492.64918     -24033.105    
  10381000   1.1514765      292.66669      481.02352     -24038.243    
  10382000   1.1514765      297.15884     -95.251757     -24097.413    
  10383000   1.1514765      303.77358     -315.64144     -24045.759    
  10384000   1.1514765      297.21051      863.12943     -23961.645    
  10385000   1.1514765      287.59853      163.18482     -23971.938    
  10386000   1.1514765      297.64027      478.43548     -23880.29     
  10387000   1.1514765      307.03036     -198.1114      -23919.605    
  10388000   1.1514765      291.00105      131.89007     -24011.557    
  10389000   1.1514765      295.99449     -55.188652     -24058.288    
  10390000   1.1514765      300.48747      553.49585     -23998.937    
  10391000   1.1514765      307.43406      66.100734     -23950.131    
  10392000   1.1514765      293.89979      568.66238     -23990.778    
  10393000   1.1514765      294.0121      -95.46378      -24026.952    
  10394000   1.1514765      293.3884       706.68374     -23971.579    
  10395000   1.1514765      296.05246      640.97987     -23978.859    
  10396000   1.1514765      294.69625     -136.40003     -23989.193    
  10397000   1.1514765      300.57882     -247.62135     -23969.724    
  10398000   1.1514765      290.65378     -46.840586     -24028.101    
  10399000   1.1514765      292.35257      65.797206     -23978.659    
  10400000   1.1514765      293.4244      -21.972025     -24071.789    
  10401000   1.1514765      295.80227      431.20754     -24009.08     
  10402000   1.1514765      296.66645      31.434603     -23911.892    
  10403000   1.1514765      298.24043     -159.15444     -24005.301    
  10404000   1.1514765      300.99341     -99.90087      -23912.556    
  10405000   1.1514765      292.14231     -267.05532     -23971.887    
  10406000   1.1514765      293.36543     -261.93546     -23951.655    
  10407000   1.1514765      295.39832      475.13435     -24003.597    
  10408000   1.1514765      294.71043      90.843107     -23946.654    
  10409000   1.1514765      288.62233      31.399087     -24074.812    
  10410000   1.1514765      304.36758     -543.22884     -23866.4      
  10411000   1.1514765      300.19844      433.64948     -23935.227    
  10412000   1.1514765      294.73001      225.55466     -23993.043    
  10413000   1.1514765      296.32199      109.86711     -24015.169    
  10414000   1.1514765      300.41744      202.38617     -23948.638    
  10415000   1.1514765      298.3292      -103.55481     -24022.505    
  10416000   1.1514765      300.99774     -774.85379     -23978.07     
  10417000   1.1514765      300.12208      440.85238     -23931.236    
  10418000   1.1514765      291.37503      98.90903      -24045.189    
  10419000   1.1514765      297.58282     -296.08701     -23917.405    
  10420000   1.1514765      292.40221     -900.78683     -23879.807    
  10421000   1.1514765      299.05838     -271.73113     -23981.887    
  10422000   1.1514765      295.9128      -136.67421     -23966.226    
  10423000   1.1514765      302.5238       92.440999     -23834.911    
  10424000   1.1514765      300.36586     -355.11438     -23910.422    
  10425000   1.1514765      292.9734       1274.7049     -23991.786    
  10426000   1.1514765      300.87749     -390.63805     -23865.299    
  10427000   1.1514765      289.93961     -1050.1385     -23970.253    
  10428000   1.1514765      297.7102       28.730239     -23965.869    
  10429000   1.1514765      301.39528     -27.103211     -23884.985    
  10430000   1.1514765      293.15115     -397.95092     -24035.928    
  10431000   1.1514765      298.91074     -59.94742      -23994.136    
  10432000   1.1514765      293.73155      10.051644     -24089.091    
  10433000   1.1514765      295.39485     -296.26946     -24019.551    
  10434000   1.1514765      301.34458     -537.90433     -23900.839    
  10435000   1.1514765      297.31675     -91.100377     -23985.244    
  10436000   1.1514765      298.09896      112.19771     -23955.12     
  10437000   1.1514765      290.78928     -242.31825     -23994.377    
  10438000   1.1514765      293.65832     -505.37327     -24003.839    
  10439000   1.1514765      297.10502      923.46209     -24076.708    
  10440000   1.1514765      305.27513     -96.643873     -23933.782    
  10441000   1.1514765      303.71129     -88.406584     -23954.193    
  10442000   1.1514765      291.68076     -35.972295     -23935.095    
  10443000   1.1514765      295.55603      295.62832     -23957.136    
  10444000   1.1514765      307.0283      -133.85076     -23881.702    
  10445000   1.1514765      300.3672       679.62693     -23919.733    
  10446000   1.1514765      298.95269      111.57253     -24073.116    
  10447000   1.1514765      287.474        579.69317     -24056.117    
  10448000   1.1514765      301.24929      657.55649     -23919.788    
  10449000   1.1514765      298.88398      934.07831     -23853.986    
  10450000   1.1514765      304.16411     -14.173717     -23945.175    
  10451000   1.1514765      290.10366     -27.68024      -24048.933    
  10452000   1.1514765      293.28349      1087.7872     -23958.64     
  10453000   1.1514765      297.01825      316.15664     -24025.19     
  10454000   1.1514765      301.87691     -137.75619     -23942.745    
  10455000   1.1514765      293.76865     -225.95442     -24045.516    
  10456000   1.1514765      297.18439      209.73841     -23945.366    
  10457000   1.1514765      294.34533     -39.711326     -23952.756    
  10458000   1.1514765      300.86044      156.80242     -23916.583    
  10459000   1.1514765      291.2462       158.96109     -23915.508    
  10460000   1.1514765      289.07893      16.605582     -24059.979    
  10461000   1.1514765      294.13727     -459.70764     -23922.664    
  10462000   1.1514765      293.3632      -235.7839      -24072.742    
  10463000   1.1514765      294.98732      535.18591     -23945.025    
  10464000   1.1514765      284.94948     -291.52175     -24055.201    
  10465000   1.1514765      290.48014     -528.58477     -24067.27     
  10466000   1.1514765      303.67022     -298.80451     -24075.401    
  10467000   1.1514765      297.73189     -235.48116     -24015.223    
  10468000   1.1514765      297.66         771.13489     -23998.974    
  10469000   1.1514765      294.49767      572.16145     -24098.547    
  10470000   1.1514765      295.99866      756.8232      -24064.521    
  10471000   1.1514765      302.94717      142.77869     -24040.688    
  10472000   1.1514765      293.4058       65.469452     -23943.27     
  10473000   1.1514765      293.81679     -16.139504     -23977.345    
  10474000   1.1514765      299.1557      -108.78868     -23960.301    
  10475000   1.1514765      298.04624     -45.55818      -24003.425    
  10476000   1.1514765      300.27121     -728.88789     -23882.549    
  10477000   1.1514765      302.06439     -566.75667     -23994.261    
  10478000   1.1514765      289.91584      662.3265      -23999.88     
  10479000   1.1514765      299.77203     -128.49877     -23900.253    
  10480000   1.1514765      298.10983     -171.27764     -23985.478    
  10481000   1.1514765      292.0572       729.66125     -23973.704    
  10482000   1.1514765      295.32624     -418.88948     -24058.124    
  10483000   1.1514765      294.46855      21.789483     -24039.452    
  10484000   1.1514765      294.96335      530.31452     -24019.542    
  10485000   1.1514765      292.48475     -431.95339     -24049.418    
  10486000   1.1514765      299.72394     -674.47232     -23993.465    
  10487000   1.1514765      293.33825     -357.51321     -23975.907    
  10488000   1.1514765      294.02587     -433.94345     -23989.265    
  10489000   1.1514765      294.52916     -62.81176      -23975.426    
  10490000   1.1514765      289.52232     -665.88514     -24052.14     
  10491000   1.1514765      298.56188     -216.72189     -23944.929    
  10492000   1.1514765      297.51881      356.55315     -24026.808    
  10493000   1.1514765      298.58095      705.61953     -23964.98     
  10494000   1.1514765      301.53487      81.516962     -23904.865    
  10495000   1.1514765      301.74853      113.0989      -23936.708    
  10496000   1.1514765      305.7688      -366.78908     -23918.46     
  10497000   1.1514765      298.07436      368.50288     -23986.935    
  10498000   1.1514765      288.61129     -409.44395     -24037.252    
  10499000   1.1514765      291.99823      626.34349     -23984.966    
  10500000   1.1514765      292.16542      370.06263     -23986.832    
  10501000   1.1514765      292.50279     -1174.7273     -24008.102    
  10502000   1.1514765      308.00915     -1143.1757     -23828.768    
  10503000   1.1514765      300.27906     -265.67117     -23996.175    
  10504000   1.1514765      292.42385      124.0395      -23986.805    
  10505000   1.1514765      298.54064      661.20988     -23884.945    
  10506000   1.1514765      300.17538     -913.21521     -23968.917    
  10507000   1.1514765      290.66313     -338.86167     -23962.141    
  10508000   1.1514765      302.47877      90.493443     -23940.364    
  10509000   1.1514765      296.66265     -578.30077     -23971.101    
  10510000   1.1514765      287.8544       696.23813     -24050.844    
  10511000   1.1514765      296.64959      673.19441     -23965.07     
  10512000   1.1514765      290.25147     -379.40481     -24044.954    
  10513000   1.1514765      306.07837      493.92025     -23957.22     
  10514000   1.1514765      300.09173     -61.008041     -24033.536    
  10515000   1.1514765      302.49426     -439.97409     -23892.771    
  10516000   1.1514765      290.22023     -289.82341     -24013.41     
  10517000   1.1514765      290.88456     -426.00047     -24085.692    
  10518000   1.1514765      301.54554      353.38023     -23957.602    
  10519000   1.1514765      297.11629      409.73434     -24026.438    
  10520000   1.1514765      292.8018       72.996884     -24033.511    
  10521000   1.1514765      295.57417     -131.72712     -23985.975    
  10522000   1.1514765      297.8055       117.67761     -23997.059    
  10523000   1.1514765      299.31668     -302.84965     -23918.342    
  10524000   1.1514765      299.04457      124.73134     -23971.904    
  10525000   1.1514765      298.70834     -827.63114     -23994.103    
  10526000   1.1514765      299.85773     -91.798739     -23932.025    
  10527000   1.1514765      298.40339     -874.33642     -24003.726    
  10528000   1.1514765      295.97        -326.11981     -23999.037    
  10529000   1.1514765      295.7751      -666.38247     -24032.14     
  10530000   1.1514765      299.82652      485.73586     -24005.414    
  10531000   1.1514765      290.81008      218.36909     -24002.127    
  10532000   1.1514765      296.51606     -189.76826     -24009.311    
  10533000   1.1514765      295.62663      404.79585     -24011.337    
  10534000   1.1514765      296.37214     -735.29782     -24048.575    
  10535000   1.1514765      295.61169      237.33664     -23970.58     
  10536000   1.1514765      303.61594     -3.1825466     -23859.138    
  10537000   1.1514765      304.15649      967.52949     -23893.021    
  10538000   1.1514765      299.3854       484.68369     -23953.504    
  10539000   1.1514765      295.23615     -455.31325     -24016.229    
  10540000   1.1514765      296.84381     -128.47358     -23988.361    
  10541000   1.1514765      290.7321       1061.7343     -23968.903    
  10542000   1.1514765      299.45155     -597.97214     -23885.809    
  10543000   1.1514765      308.40539      27.881875     -23921.438    
  10544000   1.1514765      303.66498      331.74681     -23904.371    
  10545000   1.1514765      300.57206     -58.148153     -23961.818    
  10546000   1.1514765      295.06248      421.30807     -24041.383    
  10547000   1.1514765      292.61295      208.77338     -24047.167    
  10548000   1.1514765      300.49147      468.1377      -23930.362    
  10549000   1.1514765      285.73626      889.27818     -24006.739    
  10550000   1.1514765      294.42493     -489.41206     -23970.5      
Loop time of 1376.93 on 32 procs for 500000 steps with 3324 atoms

Performance: 62.748 ns/day, 0.382 hours/ns, 363.126 timesteps/s
99.6% CPU use with 32 MPI tasks x no OpenMP threads

MPI task timing breakdown:
Section |  min time  |  avg time  |  max time  |%varavg| %total
---------------------------------------------------------------
Pair    | 405.56     | 452.29     | 489.97     | 103.9 | 32.85
Bond    | 1.6794     | 1.8244     | 1.9162     |   5.0 |  0.13
Kspace  | 275.61     | 312.45     | 356.77     | 119.6 | 22.69
Neigh   | 146.29     | 154.38     | 167.88     |  49.1 | 11.21
Comm    | 97.004     | 107.79     | 112.61     |  38.8 |  7.83
Output  | 19.293     | 19.299     | 19.308     |   0.1 |  1.40
Modify  | 313.44     | 322.33     | 327.83     |  21.1 | 23.41
Other   |            | 6.579      |            |       |  0.48

Nlocal:        103.875 ave         115 max          92 min
Histogram: 2 2 3 4 4 5 5 2 2 3
Nghost:        4361.38 ave        4402 max        4322 min
Histogram: 2 0 5 3 7 3 7 2 1 2
Neighs:        42513.4 ave       46852 max       35980 min
Histogram: 2 0 4 1 4 3 6 2 5 5

Total # of neighbors = 1360429
Ave neighs/atom = 409.27467
Ave special neighs/atom = 2.0649819
Neighbor list builds = 123111
Dangerous builds = 0
