LAMMPS (23 Jun 2022 - Update 1)
Reading data file ...
  orthogonal box = (0 0 0) to (32.221477 32.221477 32.221477)
  2 by 4 by 4 MPI processor grid
  reading atoms ...
  3324 atoms
  scanning bonds ...
  4 = max bonds/atom
  scanning angles ...
  6 = max angles/atom
  reading bonds ...
  2216 bonds
  reading angles ...
  1216 angles
Finding 1-2 1-3 1-4 neighbors ...
  special bond factors lj:    0        0        0       
  special bond factors coul:  0        0        0       
     4 = max # of 1-2 neighbors
     3 = max # of 1-3 neighbors
     3 = max # of 1-4 neighbors
     4 = max # of special neighbors
  special bonds CPU = 9.535 seconds
  read_data CPU = 10.141 seconds
Setting atom values ...
  1000 settings made for charge
Setting atom values ...
  2000 settings made for charge
Setting atom values ...
  72 settings made for charge
Setting atom values ...
  72 settings made for charge
Setting atom values ...
  36 settings made for charge
Setting atom values ...
  144 settings made for charge
1000 atoms in group wat
72 atoms in group Li
36 atoms in group S
  create bodies CPU = 0.003 seconds
  1108 rigid bodies with 3324 atoms
  1.4900047 = max distance from body owner to body atom
PPPM initialization ...
  extracting TIP4P info from pair style
  using 12-bit tables for long-range coulomb (../kspace.cpp:342)
  G vector (1/distance) = 0.30999641
  grid = 30 30 30
  stencil order = 5
  estimated absolute RMS force accuracy = 0.0037771527
  estimated relative force accuracy = 1.1374783e-05
  using double precision KISS FFT
  3d grid and FFT values/proc = 4950 960
Generated 0 of 15 mixed pair_coeff terms from arithmetic mixing rule
Neighbor list info ...
  update every 1 steps, delay 0 steps, check yes
  max neighbors/atom: 2000, page size: 100000
  master list distance cutoff = 12.3092
  ghost atom cutoff = 12.3092
  binsize = 6.1546, bins = 6 6 6
  1 neighbor lists, perpetual/occasional/extra = 1 0 0
  (1) pair lj/cut/tip4p/long, perpetual
      attributes: half, newton on
      pair build: half/bin/newton
      stencil: half/bin/3d
      bin: standard
Setting up Verlet run ...
  Unit style    : real
  Current step  : 0
  Time step     : 0.001
Per MPI rank memory allocation (min/avg/max) = 15.44 | 15.48 | 15.52 Mbytes
   Step        Density          Temp          Press          TotEng    
         0   1.090712       301.68524     -4083380.9      5846.8931    
      1000   1.0897878      327.44038      97444.064      5805.7871    
      2000   1.0868772      404.91769      93246.518      5674.5348    
      3000   1.0820784      526.23775      86012.024      5445.6677    
      4000   1.0755607      677.74689      75914.974      5100.6654    
      5000   1.0675595      848.54052      65044.333      4655.8645    
      6000   1.058338       1027.4415      54846.869      4128.8761    
      7000   1.0481634      1200.8838      43744.808      3521.2422    
      8000   1.0373206      1357.3623      33845.015      2840.372     
      9000   1.0260792      1489.3857      24994.987      2105.8323    
     10000   1.0146841      1591.3262      17212.741      1330.5699    
Loop time of 29.0835 on 32 procs for 10000 steps with 3324 atoms

Performance: 0.030 ns/day, 807.874 hours/ns, 343.838 timesteps/s
99.4% CPU use with 32 MPI tasks x no OpenMP threads

MPI task timing breakdown:
Section |  min time  |  avg time  |  max time  |%varavg| %total
---------------------------------------------------------------
Pair    | 10.018     | 11.972     | 14.203     |  30.7 | 41.16
Bond    | 0.037248   | 0.04644    | 0.054948   |   2.0 |  0.16
Kspace  | 5.815      | 7.9962     | 9.8839     |  37.5 | 27.49
Neigh   | 0.0023733  | 0.0026458  | 0.0028238  |   0.3 |  0.01
Comm    | 1.3768     | 1.5907     | 1.9383     |  15.5 |  5.47
Output  | 0.00057417 | 0.00060751 | 0.0010312  |   0.0 |  0.00
Modify  | 6.7249     | 7.055      | 7.2784     |   5.7 | 24.26
Other   |            | 0.42       |            |       |  1.44

Nlocal:        103.875 ave         116 max          94 min
Histogram: 6 0 3 2 7 7 2 0 2 3
Nghost:         4070.5 ave        4096 max        4049 min
Histogram: 3 9 2 2 2 1 1 6 3 3
Neighs:        38049.4 ave       45075 max       32844 min
Histogram: 5 3 2 2 9 4 2 2 2 1

Total # of neighbors = 1217581
Ave neighs/atom = 366.29994
Ave special neighs/atom = 2.0649819
Neighbor list builds = 2
Dangerous builds = 0
PPPM initialization ...
  extracting TIP4P info from pair style
  using 12-bit tables for long-range coulomb (../kspace.cpp:342)
  G vector (1/distance) = 0.31288719
  grid = 32 32 32
  stencil order = 5
  estimated absolute RMS force accuracy = 0.0030405521
  estimated relative force accuracy = 9.1565325e-06
  using double precision KISS FFT
  3d grid and FFT values/proc = 5175 1024
Generated 0 of 15 mixed pair_coeff terms from arithmetic mixing rule
Setting up Verlet run ...
  Unit style    : real
  Current step  : 10000
  Time step     : 0.01
Per MPI rank memory allocation (min/avg/max) = 15.47 | 15.5 | 15.53 Mbytes
   Step        Density          Temp          Press          TotEng    
     10000   1.0146841      1591.3262      9459.4702      1330.542     
     11000   0.92102055     1392.9004     -11368.808     -5523.1102    
     12000   0.87392208     995.00013     -12494.161     -9007.8588    
     13000   0.85901899     810.76692     -10871.185     -11198.695    
     14000   0.86683643     684.08953     -8642.9086     -12815.734    
     15000   0.89186746     623.86272     -7294.5856     -14122.447    
     16000   0.93012011     566.14307     -4684.8461     -15234.292    
     17000   0.97498966     538.30668     -2284.5383     -16112.392    
     18000   1.0197094      526.22018      570.22941     -16870.914    
     19000   1.0589817      512.72149      2643.3097     -17543.293    
     20000   1.0899335      503.21488      2979.6387     -18179.493    
Loop time of 27.8604 on 32 procs for 10000 steps with 3324 atoms

Performance: 0.310 ns/day, 77.390 hours/ns, 358.932 timesteps/s
99.4% CPU use with 32 MPI tasks x no OpenMP threads

MPI task timing breakdown:
Section |  min time  |  avg time  |  max time  |%varavg| %total
---------------------------------------------------------------
Pair    | 8.8944     | 10.712     | 13.254     |  31.2 | 38.45
Bond    | 0.038369   | 0.046805   | 0.056459   |   1.8 |  0.17
Kspace  | 5.8483     | 8.6226     | 10.281     |  35.3 | 30.95
Neigh   | 0.01874    | 0.02042    | 0.021611   |   0.7 |  0.07
Comm    | 1.2457     | 1.4365     | 1.7338     |  15.3 |  5.16
Output  | 0.00052106 | 0.00055814 | 0.0010058  |   0.0 |  0.00
Modify  | 6.5172     | 6.7179     | 6.8108     |   2.4 | 24.11
Other   |            | 0.3033     |            |       |  1.09

Nlocal:        103.875 ave         119 max          86 min
Histogram: 1 0 3 5 5 3 7 6 0 2
Nghost:        4240.12 ave        4278 max        4202 min
Histogram: 2 1 7 5 1 3 4 2 3 4
Neighs:        40094.7 ave       47592 max       31914 min
Histogram: 1 2 4 4 4 4 5 5 1 2

Total # of neighbors = 1283030
Ave neighs/atom = 385.98977
Ave special neighs/atom = 2.0649819
Neighbor list builds = 16
Dangerous builds = 0
PPPM initialization ...
  extracting TIP4P info from pair style
  using 12-bit tables for long-range coulomb (../kspace.cpp:342)
  G vector (1/distance) = 0.30997921
  grid = 30 30 30
  stencil order = 5
  estimated absolute RMS force accuracy = 0.0037798333
  estimated relative force accuracy = 1.1382856e-05
  using double precision KISS FFT
  3d grid and FFT values/proc = 4950 960
Generated 0 of 15 mixed pair_coeff terms from arithmetic mixing rule
Setting up Verlet run ...
  Unit style    : real
  Current step  : 20000
  Time step     : 0.1
Per MPI rank memory allocation (min/avg/max) = 15.44 | 15.48 | 15.52 Mbytes
   Step        Density          Temp          Press          TotEng    
     20000   1.0899335      503.21488      2176.1064     -18179.493    
     21000   1.1907606      329.30638      1643.3961     -21830.449    
     22000   1.1918363      303.23432     -669.14208     -22819.833    
     23000   1.1903418      295.83813     -781.42256     -23190.473    
     24000   1.1741268      290.76911      584.14624     -23383.861    
     25000   1.1775188      302.13064      260.06999     -23376.142    
     26000   1.1703056      303.59579      87.113878     -23434.408    
     27000   1.1574799      289.20037     -942.91306     -23541.83     
     28000   1.1614803      291.6531      -78.492527     -23566.055    
     29000   1.1577105      302.47474      451.8025      -23549.84     
     30000   1.1524319      288.95328      17.921263     -23655.092    
Loop time of 31.0603 on 32 procs for 10000 steps with 3324 atoms

Performance: 2.782 ns/day, 8.628 hours/ns, 321.954 timesteps/s
99.5% CPU use with 32 MPI tasks x no OpenMP threads

MPI task timing breakdown:
Section |  min time  |  avg time  |  max time  |%varavg| %total
---------------------------------------------------------------
Pair    | 11.387     | 13.487     | 15.314     |  23.2 | 43.42
Bond    | 0.040943   | 0.047066   | 0.054537   |   1.4 |  0.15
Kspace  | 6.1505     | 7.8299     | 9.7113     |  30.4 | 25.21
Neigh   | 0.12824    | 0.14203    | 0.15146    |   1.9 |  0.46
Comm    | 1.473      | 1.6802     | 2.013      |  15.2 |  5.41
Output  | 0.00052379 | 0.00054586 | 0.00083327 |   0.0 |  0.00
Modify  | 7.1005     | 7.445      | 7.6649     |   5.7 | 23.97
Other   |            | 0.4283     |            |       |  1.38

Nlocal:        103.875 ave         114 max          95 min
Histogram: 1 3 5 5 4 6 2 2 2 2
Nghost:        4386.88 ave        4418 max        4343 min
Histogram: 1 0 1 4 5 8 3 3 4 3
Neighs:        42540.5 ave       49992 max       37143 min
Histogram: 1 4 7 3 5 5 5 0 1 1

Total # of neighbors = 1361297
Ave neighs/atom = 409.5358
Ave special neighs/atom = 2.0649819
Neighbor list builds = 104
Dangerous builds = 0
PPPM initialization ...
  extracting TIP4P info from pair style
  using 12-bit tables for long-range coulomb (../kspace.cpp:342)
  G vector (1/distance) = 0.31131793
  grid = 30 30 30
  stencil order = 5
  estimated absolute RMS force accuracy = 0.0035762622
  estimated relative force accuracy = 1.0769807e-05
  using double precision KISS FFT
  3d grid and FFT values/proc = 4950 960
Generated 0 of 15 mixed pair_coeff terms from arithmetic mixing rule
Setting up Verlet run ...
  Unit style    : real
  Current step  : 30000
  Time step     : 0.2
Per MPI rank memory allocation (min/avg/max) = 15.45 | 15.48 | 15.52 Mbytes
   Step        Density          Temp          Press          TotEng    
     30000   1.1524319      288.95328      1761.0588     -23655.09     
     31000   1.159291       297.47361     -332.04167     -23667.219    
     32000   1.1632097      310.3608       180.03847     -23549.166    
     33000   1.1539215      295.15187      39.410721     -23701.414    
     34000   1.1679891      292.77676      718.52329     -23797.998    
     35000   1.1471098      298.34942     -704.31782     -23703.848    
     36000   1.1451226      301.06896     -645.93895     -23760.56     
     37000   1.1517402      295.47974     -371.30905     -23766.912    
     38000   1.1515571      289.10933     -138.23077     -23865.661    
     39000   1.1474256      296.71731      408.94291     -23851.363    
     40000   1.1522023      295.7973       797.4888      -23879.671    
Loop time of 30.8804 on 32 procs for 10000 steps with 3324 atoms

Performance: 5.596 ns/day, 4.289 hours/ns, 323.830 timesteps/s
99.5% CPU use with 32 MPI tasks x no OpenMP threads

MPI task timing breakdown:
Section |  min time  |  avg time  |  max time  |%varavg| %total
---------------------------------------------------------------
Pair    | 11.517     | 13.422     | 14.593     |  18.5 | 43.46
Bond    | 0.042079   | 0.047023   | 0.052397   |   1.2 |  0.15
Kspace  | 6.5014     | 7.5467     | 9.2304     |  25.3 | 24.44
Neigh   | 0.28848    | 0.3178     | 0.33905    |   2.8 |  1.03
Comm    | 1.4757     | 1.6773     | 2.004      |  15.4 |  5.43
Output  | 0.00051822 | 0.00055283 | 0.00083117 |   0.0 |  0.00
Modify  | 7.0941     | 7.4398     | 7.6898     |   5.8 | 24.09
Other   |            | 0.4294     |            |       |  1.39

Nlocal:        103.875 ave         118 max          95 min
Histogram: 2 6 3 9 3 3 4 0 1 1
Nghost:        4410.84 ave        4464 max        4363 min
Histogram: 2 0 7 6 4 3 4 2 3 1
Neighs:        42540.7 ave       50847 max       37170 min
Histogram: 2 4 7 5 4 6 1 1 1 1

Total # of neighbors = 1361302
Ave neighs/atom = 409.5373
Ave special neighs/atom = 2.0649819
Neighbor list builds = 235
Dangerous builds = 0
PPPM initialization ...
  extracting TIP4P info from pair style
  using 12-bit tables for long-range coulomb (../kspace.cpp:342)
  G vector (1/distance) = 0.31131316
  grid = 30 30 30
  stencil order = 5
  estimated absolute RMS force accuracy = 0.0035769691
  estimated relative force accuracy = 1.0771936e-05
  using double precision KISS FFT
  3d grid and FFT values/proc = 4950 960
Generated 0 of 15 mixed pair_coeff terms from arithmetic mixing rule
Setting up Verlet run ...
  Unit style    : real
  Current step  : 40000
  Time step     : 0.5
Per MPI rank memory allocation (min/avg/max) = 15.45 | 15.48 | 15.52 Mbytes
   Step        Density          Temp          Press          TotEng    
     40000   1.1522023      295.7973       1157.9851     -23879.671    
     41000   1.1499658      299.87393     -208.0007      -23873.26     
     42000   1.1540338      301.52851     -293.64348     -23958.143    
     43000   1.148639       301.04781     -47.489028     -23880.008    
     44000   1.1452411      299.99523      351.8945      -23866.735    
     45000   1.154917       300.34129      438.4005      -23897.564    
     46000   1.1494476      298.62829      1064.1147     -23896.857    
     47000   1.1455007      300.22248     -343.85647     -23870.539    
     48000   1.1591247      300.92291     -114.63326     -23944.09     
     49000   1.1480441      305.50903     -436.06786     -23806.712    
     50000   1.1504566      295.14256      688.05448     -24000.285    
Loop time of 32.1329 on 32 procs for 10000 steps with 3324 atoms

Performance: 13.444 ns/day, 1.785 hours/ns, 311.207 timesteps/s
99.5% CPU use with 32 MPI tasks x no OpenMP threads

MPI task timing breakdown:
Section |  min time  |  avg time  |  max time  |%varavg| %total
---------------------------------------------------------------
Pair    | 12.283     | 13.473     | 14.877     |  18.7 | 41.93
Bond    | 0.038232   | 0.047155   | 0.053589   |   1.4 |  0.15
Kspace  | 6.2245     | 7.7904     | 8.803      |  27.0 | 24.24
Neigh   | 0.8506     | 0.93927    | 1.0014     |   4.6 |  2.92
Comm    | 1.5573     | 1.7664     | 2.1125     |  15.6 |  5.50
Output  | 0.00045135 | 0.00048303 | 0.0007853  |   0.0 |  0.00
Modify  | 7.3531     | 7.6832     | 7.9358     |   5.7 | 23.91
Other   |            | 0.4331     |            |       |  1.35

Nlocal:        103.875 ave         115 max          95 min
Histogram: 3 4 3 2 5 4 2 7 1 1
Nghost:        4397.41 ave        4443 max        4369 min
Histogram: 2 6 6 5 3 6 0 1 2 1
Neighs:          42448 ave       49179 max       38336 min
Histogram: 5 4 5 6 3 2 2 2 2 1

Total # of neighbors = 1358335
Ave neighs/atom = 408.64471
Ave special neighs/atom = 2.0649819
Neighbor list builds = 683
Dangerous builds = 0
  create bodies CPU = 0.000 seconds
  1108 rigid bodies with 3324 atoms
  1.4905349 = max distance from body owner to body atom
PPPM initialization ...
  extracting TIP4P info from pair style
  using 12-bit tables for long-range coulomb (../kspace.cpp:342)
  G vector (1/distance) = 0.31127686
  grid = 30 30 30
  stencil order = 5
  estimated absolute RMS force accuracy = 0.0035823543
  estimated relative force accuracy = 1.0788154e-05
  using double precision KISS FFT
  3d grid and FFT values/proc = 4950 960
Generated 0 of 15 mixed pair_coeff terms from arithmetic mixing rule
Setting up Verlet run ...
  Unit style    : real
  Current step  : 0
  Time step     : 1
Per MPI rank memory allocation (min/avg/max) = 16.47 | 16.51 | 16.69 Mbytes
   Step        Density          Temp          Press          TotEng    
         0   1.1504566      295.14256      2759.3075     -24000.285    
      1000   1.1557025      295.38074      266.06096     -24035.452    
      2000   1.1474307      293.56626     -962.05727     -23948.471    
      3000   1.157679       298.90327      605.08584     -23915.859    
      4000   1.1434613      294.13991      280.13472     -23920.515    
      5000   1.1464531      299.92206     -289.21083     -23932.185    
      6000   1.1523765      300.21775      327.18471     -23887.202    
      7000   1.1570908      300.88834      330.72583     -23930.879    
      8000   1.1434045      300.64315     -368.92669     -24001.025    
      9000   1.1557572      290.60257      291.81258     -24028.093    
     10000   1.1314221      302.23365     -298.5138      -23935.906    
     11000   1.1494081      303.85155      685.8636      -23902.62     
     12000   1.1463473      301.65575      7.9578409     -24084.905    
     13000   1.1430001      299.11727      21.274795     -24021.688    
     14000   1.1529848      305.71682      109.69634     -23976.624    
     15000   1.1552934      291.92193     -4.1653351     -24074.677    
     16000   1.137537       297.77338     -412.12861     -24000.436    
     17000   1.1546939      299.67185      669.33385     -23997.316    
     18000   1.1495954      303.05105     -581.64593     -24021.709    
     19000   1.1590796      296.6234      -18.593876     -23969.929    
     20000   1.1606292      296.70211     -92.316024     -24022.644    
     21000   1.1394042      314.26485     -1027.3586     -23872.775    
     22000   1.1691037      295.10477      732.6665      -24172.963    
     23000   1.1455301      293.32502     -917.30931     -24027.8      
     24000   1.152401       292.85794      732.79772     -23984.801    
     25000   1.1383743      298.44944     -156.70882     -23971.609    
     26000   1.1604344      296.3155       1353.9906     -23978.85     
     27000   1.1345791      295.26758     -873.4136      -23940.93     
     28000   1.157523       296.14814      567.00713     -23987.963    
     29000   1.1412516      284.09556     -788.11615     -24073.414    
     30000   1.147119       289.67477      27.076247     -24031.126    
     31000   1.1419852      292.73511      426.14069     -24004.868    
     32000   1.1583067      293.85834     -148.37445     -23953.348    
     33000   1.1539987      305.19618      103.84777     -23843.705    
     34000   1.1535515      297.95696      123.6505      -24015.899    
     35000   1.1561201      301.87277      505.17339     -23974.731    
     36000   1.1518495      292.92565     -430.98623     -24040.477    
     37000   1.1510265      300.97139      411.9788      -24025.557    
     38000   1.1525607      307.97418     -712.0371      -23949.902    
     39000   1.1589459      304.56902      418.90444     -23954.901    
     40000   1.1474981      293.59589     -856.6777      -23982.156    
     41000   1.1487133      297.65324     -112.85748     -23995.696    
     42000   1.1492951      285.7953       552.652       -24126.128    
     43000   1.150403       303.33981      464.28992     -23963.281    
     44000   1.1428727      301.50223     -534.94842     -23944.669    
     45000   1.1548451      297.3367       281.83138     -24065.144    
     46000   1.1452741      297.28668      389.42939     -24007.008    
     47000   1.1422927      301.052       -505.6296      -24011.304    
     48000   1.1506452      290.64235      172.02425     -23990.295    
     49000   1.1493879      301.62122     -464.79504     -23998.327    
     50000   1.1549079      296.18782     -157.99402     -23934.016    
     51000   1.1617977      300.2268       39.353764     -24026.889    
     52000   1.1525852      295.34802     -239.05122     -24028.374    
     53000   1.1648162      305.1066       211.23732     -23871.87     
     54000   1.1453287      287.04551     -205.12214     -24079.306    
     55000   1.1587981      301.05976      1252.7018     -23973.964    
     56000   1.1447933      289.9161      -495.03634     -24089.011    
     57000   1.1502661      299.73066     -469.93436     -24010.713    
     58000   1.1513909      302.08636     -79.887014     -24038.215    
     59000   1.1593137      294.30517      598.12291     -24126.605    
     60000   1.1503196      293.1646       484.54914     -23984.79     
     61000   1.1482852      293.88664     -878.97559     -23977.391    
     62000   1.1562964      296.29003      146.26797     -23975        
     63000   1.1430318      298.14612     -281.5831      -23921.952    
     64000   1.1490184      292.0051      -373.82491     -23891.231    
     65000   1.1493493      297.74633     -228.68101     -24056.408    
     66000   1.1494504      303.04506      18.702537     -23969.285    
     67000   1.1514959      296.21654      154.70487     -23975.537    
     68000   1.1522965      296.05245     -626.13247     -24019.803    
     69000   1.1421454      295.4589      -766.31881     -24006.25     
     70000   1.1519971      295.65195     -341.39309     -24041.15     
     71000   1.1427856      289.31343     -20.409278     -24010.193    
     72000   1.1579711      293.76045      618.08151     -24088.818    
     73000   1.1378527      294.80299     -817.97544     -23996.816    
     74000   1.1482898      304.00863      1036.2576     -23889.871    
     75000   1.1326639      304.83412     -359.64571     -23924.116    
     76000   1.1463415      306.36159      573.15558     -23916.247    
     77000   1.1461604      296.28621     -48.579958     -23956.035    
     78000   1.1524687      306.47327      334.76235     -24003.399    
     79000   1.1475423      300.50766     -493.10465     -24010.908    
     80000   1.1533858      292.37405     -1022.6715     -24030.383    
     81000   1.1399349      298.80365     -636.55142     -23969.603    
     82000   1.1486801      295.8938      -248.60994     -24042.824    
     83000   1.1520044      294.44532     -637.32843     -24176.769    
     84000   1.1420996      297.47245     -831.21033     -23967.038    
     85000   1.1524283      298.41987      723.95198     -23981.138    
     86000   1.1363078      299.98074     -231.7043      -23948.379    
     87000   1.1617206      299.72369      1024.3084     -23991.507    
     88000   1.1429991      298.26028     -338.95623     -24008.24     
     89000   1.1402942      301.05991     -1025.0078     -23933.307    
     90000   1.1580563      297.7942       1050.4739     -23999.951    
     91000   1.1480333      310.34572     -237.5475      -23890.014    
     92000   1.1550887      291.16754     -714.06353     -24058.342    
     93000   1.145256       296.94274     -1234.1326     -23994.916    
     94000   1.1522136      293.6381      -298.84634     -24028.114    
     95000   1.1407953      295.28916     -415.78811     -24014.202    
     96000   1.1479215      306.19959      444.44764     -24002.651    
     97000   1.141764       292.76673     -708.12963     -24012.163    
     98000   1.1518227      292.19449     -429.53111     -24069.592    
     99000   1.1362905      304.71459      18.709061     -24015.494    
    100000   1.1429629      284.30552     -475.33785     -24137.524    
    101000   1.1552848      299.80127      187.67345     -24014.272    
    102000   1.142779       298.93737     -1015.4991     -24044.525    
    103000   1.1504315      292.31092     -171.61151     -23961.433    
    104000   1.1412158      301.24203      320.90438     -23975.735    
    105000   1.1503337      298.7935      -202.53254     -24006.865    
    106000   1.1519384      305.0019      -71.726963     -23960.367    
    107000   1.1501442      296.32773     -808.80238     -24082.53     
    108000   1.1453676      293.26984     -474.95868     -23888.645    
    109000   1.1407544      300.0893       111.1392      -23926.981    
    110000   1.1479054      292.33323      72.004394     -24103.282    
    111000   1.1520477      296.13438     -169.06997     -24090.342    
    112000   1.1577549      288.69388      982.5059      -24125.386    
    113000   1.1460981      312.00227     -340.75192     -23905.582    
    114000   1.1574753      295.67281      430.55416     -23986.873    
    115000   1.1537269      300.48883     -135.60959     -23983.136    
    116000   1.1578406      289.58954     -306.19342     -24113.491    
    117000   1.1605347      306.93115      896.29005     -23936.845    
    118000   1.155391       302.76778     -152.01122     -23993.973    
    119000   1.1611788      294.48356      698.06829     -24101.224    
    120000   1.1533493      298.46694      112.21766     -24027.842    
    121000   1.156495       293.59341      593.83588     -24043.68     
    122000   1.141721       293.83359     -162.19484     -24004.275    
    123000   1.1484577      297.69886      536.1386      -23994.132    
    124000   1.1399983      294.79896     -50.823138     -24010.526    
    125000   1.1493195      302.96016      919.93097     -23926.023    
    126000   1.140583       295.26182     -144.25209     -24020.014    
    127000   1.145342       298.07962      96.657819     -23958.993    
    128000   1.1464417      293.85658      90.427126     -23994.91     
    129000   1.1446781      292.84245     -484.82872     -24034.41     
    130000   1.1597394      294.59586      1419.7298     -23967.811    
    131000   1.133281       295.02757      130.80479     -23947.305    
    132000   1.153244       290.79325      287.65233     -24078.587    
    133000   1.1322854      294.67213      70.50722      -23893.22     
    134000   1.1369317      301.0371      -669.79001     -23878.29     
    135000   1.1645235      304.42913      442.85912     -23976.521    
    136000   1.1584766      293.85951      635.95549     -23932.156    
    137000   1.1474428      300.68726      275.59087     -23975.227    
    138000   1.1515652      295.94755      402.83374     -24043.53     
    139000   1.1509555      294.32912     -209.60779     -24054.285    
    140000   1.1453421      302.29271     -181.7532      -23995.214    
    141000   1.1593753      295.76964      710.93672     -23971.959    
    142000   1.1511666      288.71218     -468.77302     -24055.86     
    143000   1.1482151      294.03086      381.14896     -24082.093    
    144000   1.1405902      300.23676     -247.71817     -24065.026    
    145000   1.1449264      294.61615     -394.42908     -24029.123    
    146000   1.1431585      306.11525      409.16608     -24015.798    
    147000   1.1419148      297.98571     -28.816334     -24100.244    
    148000   1.1351224      297.7527      -522.74916     -24046.917    
    149000   1.1516028      306.79869      572.08564     -24088.08     
    150000   1.1419615      302.61106      232.5423      -23921.518    
    151000   1.137305       292.72608      147.16204     -24021.189    
    152000   1.1364546      301.15366     -217.06551     -24027.67     
    153000   1.1439195      295.04571      79.152972     -24018.891    
    154000   1.1506937      299.24273      19.564088     -23912.059    
    155000   1.1414871      299.13976     -105.3018      -23925.074    
    156000   1.1546605      289.50365     -398.77405     -23995.856    
    157000   1.1583952      294.46251      316.57023     -24074.049    
    158000   1.1350345      297.99791     -909.00166     -23987.156    
    159000   1.1461129      300.92275      277.09981     -23973.827    
    160000   1.1486893      295.59348      25.04285      -24081.108    
    161000   1.1509154      301.1981       900.18474     -24035.574    
    162000   1.1486063      286.34726     -110.92443     -24001.213    
    163000   1.1537041      299.15672      513.65621     -23956.724    
    164000   1.1439761      296.74257      205.56598     -23982.54     
    165000   1.1449986      298.27027      81.758771     -23924.171    
    166000   1.1488309      293.44672      653.64893     -23930.575    
    167000   1.1475792      301.54134      624.13904     -23947.145    
    168000   1.139448       290.63739      83.598191     -24083.915    
    169000   1.1502097      302.13224      339.65956     -23996.944    
    170000   1.1386038      290.05124     -783.20327     -24047.546    
    171000   1.1539896      289.90221     -88.478374     -24106.611    
    172000   1.1427227      298.50038      291.39801     -24046.938    
    173000   1.1451397      296.02766      249.79301     -24005.079    
    174000   1.1508595      298.51639      845.01954     -23937.922    
    175000   1.1487742      297.8008       212.69122     -23984.108    
    176000   1.1475229      301.13699     -68.791011     -23981.043    
    177000   1.1405307      289.91349     -535.11465     -24016.658    
    178000   1.1534316      298.06338      269.60627     -24101.522    
    179000   1.1578579      305.84277      696.77101     -23964.123    
    180000   1.1376999      294.50275     -208.2742      -24057.687    
    181000   1.1460325      292.54732      655.62288     -24030.938    
    182000   1.1462236      297.20219     -1082.5177     -24119.417    
    183000   1.1578592      297.83233      1342.3503     -24005.606    
    184000   1.1383529      301.25779     -1416.9858     -23975.888    
    185000   1.1559451      305.4057      -269.37512     -24000.944    
    186000   1.1489402      293.56951      233.07491     -24041.221    
    187000   1.1481482      296.23141     -6.4006768     -24026.971    
    188000   1.1420648      296.56653     -637.03129     -23979.111    
    189000   1.1492042      300.2213       2.3860645     -23960.128    
    190000   1.1521375      299.73715      791.21544     -24090.479    
    191000   1.1503218      290.19327     -94.881938     -24090.723    
    192000   1.13902        293.64893     -1033.7495     -24123.65     
    193000   1.1423154      296.69212      49.122022     -24048.306    
    194000   1.1500289      301.01599     -65.521441     -23988.523    
    195000   1.1544153      287.10285     -369.56873     -24108.237    
    196000   1.1378347      297.25721     -967.23502     -23953.288    
    197000   1.147868       296.26699     -189.62876     -23964.811    
    198000   1.1500369      301.21011      1259.3606     -23916.955    
    199000   1.1334135      287.42843     -493.22424     -24044.242    
    200000   1.1546095      308.12274     -206.10725     -23884.123    
    201000   1.1396553      291.9232      -637.59456     -23970.62     
    202000   1.159336       302.00256      575.01692     -24061.224    
    203000   1.1558725      293.41841      205.06482     -24033.58     
    204000   1.1611872      303.87876      595.75923     -23940.313    
    205000   1.1494772      293.25942     -1128.4003     -24045.111    
    206000   1.145841       303.73524     -370.14949     -23876.797    
    207000   1.1479206      298.70283     -599.99596     -24006.337    
    208000   1.1474712      303.7446       408.39931     -23939.143    
    209000   1.1436823      296.22782     -375.15778     -23979.777    
    210000   1.1460348      298.38265     -224.31181     -23974.771    
    211000   1.1534034      314.13837      329.80096     -23919.362    
    212000   1.137823       302.18771      123.66564     -23980.813    
    213000   1.1456923      298.20431      255.33737     -24008.074    
    214000   1.1393119      298.45631     -72.440232     -23930.255    
    215000   1.1640902      301.35404      714.01859     -24041.574    
    216000   1.1438957      297.1437      -16.572555     -24008.55     
    217000   1.1544314      298.272        438.48062     -24027.581    
    218000   1.1532597      300.64897     -596.38829     -24020.793    
    219000   1.1498739      303.7406      -196.58691     -23979.173    
    220000   1.1480196      306.03659     -884.95555     -23965.912    
    221000   1.1391095      297.39919     -1470.5774     -24035.201    
    222000   1.1567932      298.2884       726.52947     -24081.289    
    223000   1.1436533      295.01374      114.39364     -24020.762    
    224000   1.1519247      293.42469      431.70104     -23994.213    
    225000   1.1464526      306.20037     -240.61007     -23953.269    
    226000   1.1567897      300.06983     -742.60918     -24097.133    
    227000   1.1489645      303.09429      265.35411     -23974.883    
    228000   1.1576572      298.68041      1193.3399     -24015.855    
    229000   1.1484074      301.89457     -253.68918     -23977.429    
    230000   1.1510987      297.21631     -78.824781     -23970.57     
    231000   1.1482792      294.56921      36.673015     -24087.704    
    232000   1.1531949      295.05752     -95.133258     -24039.347    
    233000   1.1486268      303.04669      236.1805      -23947.353    
    234000   1.1371513      299.95877     -472.05238     -24048.306    
    235000   1.1437392      299.42264     -500.2986      -24071.59     
    236000   1.1435893      301.9117      -385.4396      -23941.419    
    237000   1.1604798      309.15586     -284.46139     -24004.622    
    238000   1.1495496      296.90002      608.99985     -23976.271    
    239000   1.1447328      293.61517      420.23524     -24041.426    
    240000   1.1435737      298.70132      64.405275     -23973.687    
    241000   1.1384215      292.49711     -47.271425     -24047.747    
    242000   1.1434768      293.78206      67.413997     -24040.196    
    243000   1.138061       301.8347       82.70424      -23965.653    
    244000   1.1497562      295.59973     -189.83362     -24017.368    
    245000   1.1334125      303.51608      277.76382     -23909.741    
    246000   1.1670059      296.03236      712.95457     -24065.481    
    247000   1.1427127      290.01767     -1233.0727     -23977.869    
    248000   1.1598938      297.48453      1013.105      -23998.933    
    249000   1.1520263      303.57884      324.92236     -23965.279    
    250000   1.1489343      297.39079      67.44503      -24051.834    
    251000   1.1530053      293.87283     -227.87463     -24085.596    
    252000   1.1511254      294.78217      453.7542      -24034.847    
    253000   1.1523847      307.42734      212.77706     -23991.21     
    254000   1.1641182      294.25236      165.14295     -24049.185    
    255000   1.1629766      304.49823      135.46475     -23912.432    
    256000   1.1561857      293.28524      19.805798     -24108.49     
    257000   1.1482667      302.65353      969.05275     -23967.304    
    258000   1.1485606      298.09393     -116.92193     -24076.704    
    259000   1.1480558      301.5537      -190.07554     -24020.145    
    260000   1.1537572      302.6637       186.38117     -23954.281    
    261000   1.1464081      291.77174     -725.7012      -23980.945    
    262000   1.1520538      304.57076     -625.97359     -24006.696    
    263000   1.1637077      301.299        60.888561     -24019.575    
    264000   1.1590984      295.76977      185.3686      -24099.579    
    265000   1.1422384      303.33456     -751.02256     -23942.869    
    266000   1.1547271      296.35538     -119.66045     -24047.993    
    267000   1.1587012      296.6215      -304.89184     -24053.331    
    268000   1.1508365      296.66165      222.00905     -24015.029    
    269000   1.1623986      304.20119      286.68013     -24064.011    
    270000   1.157492       299.57739     -116.085       -24017.452    
    271000   1.152605       293.8073       335.07366     -23957.146    
    272000   1.1433334      291.11372     -178.44777     -24011.115    
    273000   1.154884       306.7696       618.82283     -23842.934    
    274000   1.1635849      300.94383      317.65073     -24037.034    
    275000   1.148283       305.25634      251.10623     -23991.151    
    276000   1.1492177      294.86931     -836.89345     -24100.627    
    277000   1.1552893      303.23778      892.3696      -23919.32     
    278000   1.1538273      290.41879     -572.80695     -24008.129    
    279000   1.1605426      298.96629      209.35041     -24042.041    
    280000   1.1583705      304.14025      287.55078     -23983.667    
    281000   1.1554122      298.37684     -842.23124     -24064.839    
    282000   1.1559116      292.68167     -727.20304     -24046.086    
    283000   1.1587534      303.88142     -34.895038     -23960.765    
    284000   1.1499366      295.92971     -57.836513     -24018.992    
    285000   1.1425005      284.56006     -483.27198     -24105.686    
    286000   1.1541352      296.61978     -556.56983     -23957.741    
    287000   1.1392313      297.59887     -141.09254     -23986.956    
    288000   1.1381561      294.45935     -69.006201     -23996.508    
    289000   1.1568129      304.5585       824.69123     -23954.967    
    290000   1.1439211      299.23869     -79.132683     -24017.709    
    291000   1.1412678      298.94099     -271.17149     -24036.309    
    292000   1.154362       291.07417     -35.395609     -24022.984    
    293000   1.1369986      307.41381     -632.26334     -23930.059    
    294000   1.1653974      289.54013      1085.1079     -24071.899    
    295000   1.1413212      286.34665     -395.83283     -24142.85     
    296000   1.1466143      288.82199      71.117662     -24112.712    
    297000   1.1372678      294.19378     -87.445783     -23961.603    
    298000   1.138107       297.18703     -519.67673     -24042.679    
    299000   1.1453513      298.62419     -54.583289     -24004.586    
    300000   1.1431066      285.54752      747.49881     -24077.892    
    301000   1.1355238      296.72129     -493.45233     -23925.044    
    302000   1.1574439      294.6291       241.93576     -24095.121    
    303000   1.1557029      295.02339      161.64414     -24041.006    
    304000   1.1512278      301.61883     -776.46737     -24033.624    
    305000   1.1575341      295.72307      260.7171      -24071.944    
    306000   1.1423723      304.55002      307.17107     -23815.833    
    307000   1.1478053      297.03075     -783.20092     -24003.827    
    308000   1.1488026      302.3741      -360.59762     -23928.233    
    309000   1.150212       301.92353     -523.40707     -23966.723    
    310000   1.1552015      302.00059      56.477992     -23954.344    
    311000   1.1405441      286.24756     -126.87221     -24016.41     
    312000   1.1585747      301.61011      320.52949     -23937.308    
    313000   1.1465162      297.4196      -926.03304     -23927.069    
    314000   1.1613368      301.4387       429.14385     -23935.081    
    315000   1.1528852      304.00517     -335.57866     -24003.437    
    316000   1.149016       300.50715      202.48006     -24000.685    
    317000   1.1579678      300.48988      863.46317     -23927.292    
    318000   1.1455135      301.7923      -258.87021     -23912.683    
    319000   1.1530021      302.47301      247.14403     -23984.132    
    320000   1.1461757      296.12528      148.94602     -23979.952    
    321000   1.1415301      298.07609     -228.10548     -24013.683    
    322000   1.1599565      293.14409      837.03342     -24117.472    
    323000   1.1567157      306.53314     -472.29938     -23980.07     
    324000   1.1635851      294.57512      763.43557     -24037.037    
    325000   1.142693       303.17531     -60.172867     -23921.512    
    326000   1.1599847      305.90008      684.12497     -23912.865    
    327000   1.156292       295.09735      221.59457     -24053.845    
    328000   1.1418429      301.36771     -302.71578     -23958.613    
    329000   1.1576462      297.83794      472.36896     -23985.442    
    330000   1.1473053      299.62232      364.86634     -23934.797    
    331000   1.1537575      290.6717       29.67215      -24085.944    
    332000   1.160424       299.519       -73.502797     -24003.335    
    333000   1.1556866      301.89887     -214.50938     -23944.703    
    334000   1.1557612      299.48579     -395.17444     -23957.734    
    335000   1.1544868      297.94197     -89.291111     -24009.421    
    336000   1.1421741      302.11445      447.56884     -23939.711    
    337000   1.1589738      298.7801       1534.2918     -23968.539    
    338000   1.1413456      299.32085      355.85039     -23918.276    
    339000   1.1478871      300.92417      88.919829     -23992.623    
    340000   1.1392531      289.65286     -325.25359     -24036.441    
    341000   1.1445255      300.40332     -65.939997     -23925.948    
    342000   1.1547123      298.73283      458.48409     -24026.654    
    343000   1.1417463      289.55231     -197.90552     -24085.829    
    344000   1.1530534      297.74498      268.67732     -23996.77     
    345000   1.1448353      292.64338     -429.5384      -24072.151    
    346000   1.1421771      292.62945     -482.65515     -23990.181    
    347000   1.1406965      299.54087      663.95216     -23901.03     
    348000   1.1516236      305.131        1108.9005     -23942.716    
    349000   1.157253       294.0766      -331.97848     -24081.163    
    350000   1.1425759      297.53658     -603.60346     -23980.979    
    351000   1.1570658      309.08045      442.92735     -23917.403    
    352000   1.1360265      301.25234     -661.19004     -24024.277    
    353000   1.153778       302.32555      592.23559     -24018.85     
    354000   1.144258       296.06529     -186.38395     -24085.369    
    355000   1.1502338      297.47089     -807.44292     -23920.586    
    356000   1.1518983      297.84681      1351.2972     -23960.961    
    357000   1.1488021      305.62256      552.59135     -23983.755    
    358000   1.1497455      291.80582     -358.82888     -24136.108    
    359000   1.1388232      308.41852     -424.64241     -23867.791    
    360000   1.1519726      292.16319      22.529864     -24087.14     
    361000   1.1529134      295.3623      -155.01607     -24128.758    
    362000   1.1420608      300.28895     -292.25608     -23977.426    
    363000   1.1452395      305.33508      511.20143     -23969.566    
    364000   1.1544802      302.59932     -320.27365     -23947.169    
    365000   1.1514793      292.4838      -37.148882     -24028.833    
    366000   1.1535408      295.90793      30.747354     -24032.769    
    367000   1.1314342      295.64073     -202.39156     -23983.042    
    368000   1.1583621      297.97069      60.726167     -23996.202    
    369000   1.1480552      300.72333     -253.35676     -23886.639    
    370000   1.1475268      294.68271     -190.02178     -24042.427    
    371000   1.1498355      301.7963      -96.942185     -23942.471    
    372000   1.1622779      301.78268      293.79623     -23963.217    
    373000   1.1438612      284.93706      213.82155     -24058.984    
    374000   1.1642745      304.23096      93.900897     -23978.099    
    375000   1.1428246      298.059       -785.58725     -23962.362    
    376000   1.1537565      302.44879      80.815686     -23992.378    
    377000   1.163478       299.86194      1087.7654     -24027.678    
    378000   1.1500505      297.25935      223.97311     -24008.499    
    379000   1.1504353      289.22732     -453.83032     -24012.411    
    380000   1.1582574      285.40321     -428.93487     -24167.367    
    381000   1.1617189      292.348        353.52283     -24133.855    
    382000   1.1581922      287.81641      282.92608     -24056.494    
    383000   1.1542177      290.74265     -573.86427     -24061.557    
    384000   1.1641989      294.71189      705.14231     -24025.254    
    385000   1.1403078      298.92614     -151.22785     -23914.509    
    386000   1.1502558      289.62605     -650.93699     -24048.569    
    387000   1.1453266      305.7084       121.34591     -23962.657    
    388000   1.149404       291.92102     -5.3398219     -24050.569    
    389000   1.1499339      297.41576     -455.34971     -23995.98     
    390000   1.1421753      300.48318     -981.01782     -23922.406    
    391000   1.1533776      296.04944      189.7853      -23985.177    
    392000   1.1661118      287.51303      1242.4456     -24045.118    
    393000   1.1580075      300.96999      397.48609     -24034.979    
    394000   1.1634587      297.42533     -651.9074      -24067.243    
    395000   1.1664578      290.08794      459.69098     -24081.2      
    396000   1.1571383      301.28928     -313.99876     -24052.778    
    397000   1.165816       295.39677      611.50936     -24078.913    
    398000   1.1593103      291.61737      186.26668     -24061.689    
    399000   1.1509099      295.60401     -323.24149     -23922.347    
    400000   1.1626561      301.07657     -196.64443     -24014.065    
    401000   1.1469665      292.61156     -1297.5438     -24033.677    
    402000   1.1546101      305.59575      381.84405     -23978.144    
    403000   1.1546979      297.41178      1138.2802     -23943.095    
    404000   1.1546559      296.16026     -90.244621     -23996.449    
    405000   1.1439033      289.40846      60.660045     -24089.337    
    406000   1.1572408      300.78075      312.50696     -24020.076    
    407000   1.1473621      309.2253       20.381974     -23961.269    
    408000   1.1518624      297.75945     -43.333809     -24053.031    
    409000   1.1499672      299.72417     -9.2061845     -23961.458    
    410000   1.1540534      304.90467      336.79801     -23994.349    
    411000   1.1514514      299.27618     -195.9307      -23950.599    
    412000   1.1556806      297.10736     -271.82726     -24090.746    
    413000   1.1576816      298.97074      616.34339     -24001.928    
    414000   1.1490893      301.05719     -1005.4357     -23986.746    
    415000   1.1449434      294.28712     -692.69959     -23939.086    
    416000   1.156484       292.45418     -556.81499     -24014.771    
    417000   1.1541957      302.11414      659.92239     -23934.031    
    418000   1.1498263      299.19007      190.41348     -23989.816    
    419000   1.149536       294.76413      347.15598     -23986.851    
    420000   1.1362567      301.80239      247.00011     -23998.926    
    421000   1.1504639      294.76023     -53.809794     -24051.346    
    422000   1.1498063      293.35146      389.48333     -23902.864    
    423000   1.15238        305.27992      426.60098     -23882.914    
    424000   1.1503919      302.82681     -553.81941     -23873.55     
    425000   1.1538513      309.29702      145.84044     -23874.875    
    426000   1.1434769      295.76535      555.56021     -24050.305    
    427000   1.1429461      294.28257     -1.9853856     -24099.593    
    428000   1.1517496      303.21776      707.06579     -24040.099    
    429000   1.1387926      297.18726      180.33334     -23932.477    
    430000   1.1414033      305.94443      697.09334     -23913.74     
    431000   1.1407751      303.22977     -529.25944     -23977.187    
    432000   1.1376122      287.18111     -826.50484     -24113.024    
    433000   1.1556056      305.12355      643.50094     -23994.739    
    434000   1.1448367      304.13831     -423.17255     -23960.103    
    435000   1.148435       289.64884     -1220.8351     -24091.668    
    436000   1.1658982      305.97959      774.3062      -24023.877    
    437000   1.1439112      296.56674     -343.76583     -23997.589    
    438000   1.1536854      303.62711      240.26196     -24046.997    
    439000   1.1561268      303.11832     -193.21596     -24066.418    
    440000   1.1500903      296.27548     -216.99264     -24073.898    
    441000   1.1517263      302.21691      692.65041     -23980.208    
    442000   1.1478298      296.18887     -381.73175     -24063.81     
    443000   1.1521628      290.56166      944.62631     -23969.933    
    444000   1.1454289      300.94552     -664.63228     -23957.58     
    445000   1.1460447      296.37045     -117.00767     -24063.165    
    446000   1.1488033      310.04221     -266.78671     -23954.946    
    447000   1.1497544      290.42276     -405.14254     -24102.715    
    448000   1.1531701      293.18673      137.66346     -24061.275    
    449000   1.1517995      297.39716     -495.04611     -24032.306    
    450000   1.1581001      295.97709      19.883396     -24063.514    
    451000   1.1570685      296.2172      -407.67794     -24003.963    
    452000   1.1475399      292.01587     -650.02019     -24083.603    
    453000   1.1636151      292.84763      706.11483     -24124.953    
    454000   1.1333619      299.25645     -959.76156     -24026.048    
    455000   1.151363       291.99511     -1048.7244     -24020.939    
    456000   1.1474309      304.74167     -169.29224     -24039.357    
    457000   1.1424222      291.2793      -1031.7667     -24005.389    
    458000   1.1500135      292.50883      46.926542     -24075.811    
    459000   1.1499426      293.16719     -436.20585     -24091.081    
    460000   1.1415076      290.70134     -356.07115     -23989.018    
    461000   1.141184       295.06176     -26.003841     -24006.452    
    462000   1.1522037      296.96615      159.8828      -23993.535    
    463000   1.1411338      291.60779     -171.81161     -23977.493    
    464000   1.1554124      299.57619      743.1461      -24055.005    
    465000   1.1325154      300.82497     -588.33852     -23927.116    
    466000   1.1579315      286.98766      371.97414     -24080.742    
    467000   1.1459302      293.81624     -218.62353     -24071.932    
    468000   1.1631962      292.827        603.47856     -24053.565    
    469000   1.1521739      299.27987     -1182.8006     -24022.951    
    470000   1.1542215      297.85997     -451.96768     -24010.469    
    471000   1.1478047      295.0882       425.29113     -23992.929    
    472000   1.1507056      293.55778      735.97344     -24057.589    
    473000   1.1520424      287.44752      401.06502     -24076.469    
    474000   1.1431022      302.16335     -723.20993     -23967.3      
    475000   1.1550825      301.47861      140.87347     -24017.881    
    476000   1.1423368      294.51885     -141.1121      -24098.696    
    477000   1.1648403      303.31992      945.49306     -23960.857    
    478000   1.1600137      294.93193      678.08407     -23987.258    
    479000   1.1454819      299.32613     -666.64741     -24002.1      
    480000   1.1565879      290.92369      505.98124     -24078.839    
    481000   1.1550089      300.39842      263.39357     -24037.885    
    482000   1.145095       297.09969     -887.71182     -23998.04     
    483000   1.1554415      299.01039      566.16068     -23927.24     
    484000   1.1505509      294.18542     -408.67625     -24005.742    
    485000   1.1483482      309.41571     -1427.1777     -23979.661    
    486000   1.1627496      293.97248      567.65976     -24048.07     
    487000   1.147475       296.89405     -436.33838     -23884.136    
    488000   1.1585944      300.36228      207.45668     -24014.199    
    489000   1.145898       291.81402     -220.51676     -24045.871    
    490000   1.1439872      307.751       -27.984651     -23891.165    
    491000   1.1423901      295.97568     -1000.916      -24059.436    
    492000   1.1567747      296.16795      40.110568     -24056.527    
    493000   1.1462287      290.45517     -139.56248     -24086.268    
    494000   1.1586459      298.2096       818.53711     -24051.579    
    495000   1.1467207      297.54249      367.02793     -23973.17     
    496000   1.1571722      291.4341       68.026408     -24040.982    
    497000   1.1445107      301.67018     -730.21983     -23923.32     
    498000   1.1555758      292.73909      896.55236     -24088.708    
    499000   1.1522999      300.75452      714.64521     -23994.373    
    500000   1.1466608      301.31962     -597.02009     -23969.256    
    501000   1.1545886      296.192        1552.8552     -23985.473    
    502000   1.1455442      296.7975      -115.0248      -23995.347    
    503000   1.1586501      292.34673      176.55275     -24064.678    
    504000   1.1490173      296.32427      502.01421     -24031.427    
    505000   1.155187       306.57096     -273.93988     -24004.398    
    506000   1.14998        294.65917     -1035.7998     -23944.802    
    507000   1.1628326      285.48354      164.81995     -24104.624    
    508000   1.1517344      293.37825      667.19989     -24039.906    
    509000   1.1559282      297.13553      197.89001     -23976.258    
    510000   1.1441908      290.61736     -1254.512      -23989.604    
    511000   1.1641999      295.12201      7.3963287     -23955.828    
    512000   1.1428587      293.45289     -135.99497     -23951.586    
    513000   1.157409       293.94119     -225.55999     -24013.206    
    514000   1.1524167      299.12726     -111.5043      -23997.286    
    515000   1.1512851      300.94735      136.01315     -24035.951    
    516000   1.1565099      303.39196      418.04035     -23947.96     
    517000   1.1513649      302.63448      323.08219     -23910.265    
    518000   1.1466764      298.09928      315.9597      -23928.609    
    519000   1.1407054      297.8113      -19.522233     -23959.37     
    520000   1.1516226      295.05202     -474.36881     -24115.963    
    521000   1.154313       296.37407      848.92006     -24015.183    
    522000   1.1414252      291.81971     -737.86868     -23998.168    
    523000   1.1540316      295.27884      1257.1506     -23988.07     
    524000   1.1533059      295.52868      43.587324     -24030.613    
    525000   1.1510748      295.60321      1365.5081     -23995.849    
    526000   1.1523621      310.73791      664.03528     -23934.95     
    527000   1.1472877      303.151       -486.67078     -23878.879    
    528000   1.1519771      294.77741     -21.559663     -23978.831    
    529000   1.1471181      297.89852      849.81994     -23945.438    
    530000   1.1556873      302.49531     -370.46979     -24002.585    
    531000   1.1517085      298.73635     -612.6683      -23969.365    
    532000   1.1522829      298.60523      82.271221     -23901.191    
    533000   1.1512731      296.15807     -294.14514     -24011.926    
    534000   1.1467115      287.71767     -774.99183     -23949.294    
    535000   1.1623292      293.27853      1052.0392     -24027.23     
    536000   1.1531134      299.6537       96.784583     -24018.388    
    537000   1.1595777      294.60212      329.62194     -24045.172    
    538000   1.1496339      302.57952     -243.23643     -23991.903    
    539000   1.1536736      295.25661     -535.47226     -24089.519    
    540000   1.1427458      295.05875     -1101.4547     -24096.722    
    541000   1.1576767      305.20716     -297.74088     -23966.319    
    542000   1.1507188      297.17478     -521.18511     -24050.104    
    543000   1.152113       292.16824      798.36059     -23972.164    
    544000   1.1518271      295.37151      234.79685     -24100.628    
    545000   1.1500577      298.94522     -427.69152     -23990.975    
    546000   1.1556086      286.47169      410.3396      -24116.367    
    547000   1.1430463      299.33725      165.71202     -23958.072    
    548000   1.1506559      307.92289     -780.57327     -23960.789    
    549000   1.1441168      287.54948     -72.935283     -24071.963    
    550000   1.1608084      294.11859      912.59982     -24048.571    
    551000   1.1566937      291.58913     -536.54656     -24068.836    
    552000   1.1491241      302.52989     -27.079561     -23941.282    
    553000   1.1634919      306.02055      654.0015      -23958.627    
    554000   1.1614852      299.08511     -115.96808     -24012.632    
    555000   1.1521931      299.82274      539.07468     -23977.796    
    556000   1.1539516      302.15916      10.191508     -24038.631    
    557000   1.1628769      297.136        833.62499     -24069.868    
    558000   1.1496336      294.955       -1492.8183     -24012.581    
    559000   1.1668844      305.70251      584.81357     -23941.696    
    560000   1.1495342      290.73209     -788.01684     -24078.971    
    561000   1.1520012      289.36185      257.00214     -24155.13     
    562000   1.1550317      295.18784     -81.345887     -24045.486    
    563000   1.1623492      299.75004      29.801572     -24124.213    
    564000   1.1596194      304.96196     -291.60593     -23972.286    
    565000   1.1523614      297.09622      127.40875     -24013.446    
    566000   1.151998       300.01507     -254.16908     -23938.3      
    567000   1.1545907      300.94847      617.66448     -24018.696    
    568000   1.155753       287.43898     -60.333232     -24083.405    
    569000   1.1503942      297.67995     -452.74684     -24042.211    
    570000   1.1458816      296.97987     -32.982001     -23974.041    
    571000   1.1560526      301.46681      374.10919     -24001.113    
    572000   1.1534616      301.53521     -410.47823     -24034.14     
    573000   1.1580498      291.16113      510.39258     -24078.333    
    574000   1.151024       307.06671      20.103659     -23963.729    
    575000   1.1505189      297.66051     -328.25003     -24064.017    
    576000   1.1620363      295.18889      93.578225     -24083.637    
    577000   1.157319       296.79887      821.69343     -24038.591    
    578000   1.14924        291.98923     -106.97851     -24063.243    
    579000   1.1425847      295.89698     -1016.1565     -24087.844    
    580000   1.1507308      308.14769      918.45651     -23935.031    
    581000   1.1492008      294.62964     -0.22792737    -23976.976    
    582000   1.1562056      296.17501      240.01806     -24037.073    
    583000   1.1465844      293.46435      447.89958     -23972.169    
    584000   1.1402969      301.694       -156.57101     -23938.126    
    585000   1.1642768      307.3823       1041.7931     -23949.496    
    586000   1.1518032      312.27726     -156.57413     -23881.883    
    587000   1.1523978      292.88047     -367.35588     -24061.174    
    588000   1.1566353      299.18998     -159.03634     -24021.042    
    589000   1.1438624      293.81609     -850.54374     -23908.745    
    590000   1.1598294      306.92082     -156.29991     -23950.211    
    591000   1.1498411      297.30332     -398.83933     -23914.663    
    592000   1.1582483      302.1459       122.62548     -23944.236    
    593000   1.1542683      298.09957     -89.686277     -24003.653    
    594000   1.1565687      306.89127     -668.59702     -24000.948    
    595000   1.1504616      297.18089      531.034       -24098.976    
    596000   1.1551692      304.31961      831.57891     -23911.681    
    597000   1.1419751      300.3573      -398.30174     -24083.381    
    598000   1.1583366      293.5631       242.54613     -24050.428    
    599000   1.1488204      296.33296      597.30968     -23966.873    
    600000   1.1541445      293.46756     -296.66543     -24017.475    
    601000   1.1385233      298.99016     -898.01656     -23960.004    
    602000   1.1573063      300.99536      541.08201     -23996.049    
    603000   1.1477535      294.49454     -310.80771     -24048.721    
    604000   1.1543455      304.15713      568.89758     -23994.838    
    605000   1.1468184      305.24278      232.31904     -24038.812    
    606000   1.1540136      302.90112     -304.62208     -23991.309    
    607000   1.160535       295.91666      334.28317     -23984.302    
    608000   1.1609806      295.61308      299.81959     -24047.143    
    609000   1.1539227      296.59463     -34.80425      -24059.147    
    610000   1.158942       299.49363      353.16998     -24067.167    
    611000   1.153625       302.76163      419.18331     -23957.264    
    612000   1.1495867      296.46575     -1.0029605     -24014.219    
    613000   1.1519214      295.48467     -38.433041     -23986.659    
    614000   1.15298        299.41034     -530.06707     -24018.886    
    615000   1.1596431      294.7468      -195.77761     -24071.959    
    616000   1.1543769      297.75159     -5.2283686     -23978.962    
    617000   1.1523358      292.9677      -485.22311     -24053.539    
    618000   1.1500411      295.15031     -920.18617     -23996.943    
    619000   1.1520672      295.15899      243.63689     -23996.532    
    620000   1.1589987      297.02063      320.68208     -24092.619    
    621000   1.1586403      296.47381      1029.2958     -23963.311    
    622000   1.1439847      297.70512      546.83549     -23940.106    
    623000   1.1415335      294.53171      77.162758     -23960.242    
    624000   1.1518164      298.99487      823.23972     -23901.237    
    625000   1.1351769      293.28742     -289.99767     -24057.397    
    626000   1.1467218      293.92719      173.81737     -24022.459    
    627000   1.1552589      298.84639      593.00805     -24016.532    
    628000   1.140065       297.72954     -359.31193     -23926.532    
    629000   1.156994       302.3048      -2.2994296     -23932.095    
    630000   1.1483895      298.59551      342.62806     -23960.375    
    631000   1.1573058      296.66062      1147.324      -24006.447    
    632000   1.1441424      298.14169     -155.11326     -24011.157    
    633000   1.140754       299.53702     -510.65536     -23983.353    
    634000   1.1491166      305.358        1006.6545     -23898.904    
    635000   1.141588       307.67207     -256.87952     -23906.535    
    636000   1.1472677      288.42989     -239.02052     -23989.729    
    637000   1.1553502      302.77774     -107.82913     -23902.592    
    638000   1.1544959      289.97518      18.119611     -24057.361    
    639000   1.145895       304.41121     -683.5339      -23918.995    
    640000   1.1580216      299.26978      267.46116     -24035.546    
    641000   1.1536642      299.14429      167.82984     -24092.487    
    642000   1.1491469      293.55526     -235.15904     -24003.806    
    643000   1.1495084      292.59586      209.87921     -24032.829    
    644000   1.1514865      305.92243     -160.00931     -23969.196    
    645000   1.1470689      298.95622      247.97174     -23964.507    
    646000   1.164369       298.14534      863.13844     -24080.471    
    647000   1.151643       301.34637     -821.01473     -23971.301    
    648000   1.1441636      299.67152     -117.8647      -24015.918    
    649000   1.1515         293.13427     -161.32362     -24056.299    
    650000   1.1450365      296.10133     -177.39116     -24060.418    
    651000   1.1474726      308.67677     -613.39942     -23866.845    
    652000   1.1577482      297.02546      500.84589     -23973.098    
    653000   1.1443991      304.36064     -134.93645     -24003.927    
    654000   1.1581116      302.23516     -95.607615     -23971.372    
    655000   1.1467822      296.69828      310.94992     -24045.188    
    656000   1.1515079      298.37367      189.03026     -24030.762    
    657000   1.1435874      299.47476     -9.9741084     -23994.209    
    658000   1.1490399      294.37065     -73.338078     -24083.077    
    659000   1.1455638      293.47704     -165.37634     -24101.702    
    660000   1.1503421      304.86205      33.885967     -23959.701    
    661000   1.1534451      298.0765       255.59296     -24009.724    
    662000   1.1651725      296.59088     -310.71117     -24048.411    
    663000   1.1596674      302.92096      267.82312     -24030.929    
    664000   1.1576892      303.02405      931.03313     -23985.351    
    665000   1.1511926      293.25651      726.81933     -24072.191    
    666000   1.1522325      301.17498     -398.44723     -23980.242    
    667000   1.1411587      295.27193     -101.04113     -23948.259    
    668000   1.144244       291.32487     -55.586715     -24030.486    
    669000   1.1443033      297.16562     -8.1243596     -23933.299    
    670000   1.1469891      293.42821     -616.24048     -24041.65     
    671000   1.1591775      295.46949      174.3845      -24001.452    
    672000   1.1542086      290.35293     -126.99692     -24095.106    
    673000   1.1580873      297.45759     -281.85021     -24031.808    
    674000   1.1567114      297.25568      7.346181      -24076.826    
    675000   1.1472267      297.58791     -23.933175     -23889.973    
    676000   1.1488262      302.1081       118.04643     -23970.351    
    677000   1.1488628      303.60049     -329.31371     -23995.29     
    678000   1.1492509      288.94865     -142.43837     -24056.066    
    679000   1.1484337      292.05049      275.75538     -24029.914    
    680000   1.1492743      295.24364     -218.82085     -24068.962    
    681000   1.1509481      302.2212       674.88603     -23996.876    
    682000   1.150953       289.98723      172.85253     -24121.998    
    683000   1.1485207      289.91583      67.562545     -24037.146    
    684000   1.1351586      295.87448      75.459925     -23984.819    
    685000   1.1588559      287.90494     -78.008659     -24019.501    
    686000   1.1572376      296.78473      557.393       -23981.949    
    687000   1.1528776      302.0332      -524.15891     -24038.208    
    688000   1.1521357      298.32402     -254.70375     -23955.105    
    689000   1.1432022      298.05898     -564.08507     -23902.63     
    690000   1.1618335      299.58171      279.86093     -24127.291    
    691000   1.144837       296.27716     -286.77051     -24015.142    
    692000   1.1585354      302.06238      288.9634      -24050.428    
    693000   1.1479845      302.75326     -767.57597     -23967.825    
    694000   1.1634387      298.71277      215.25578     -24020.403    
    695000   1.1541141      295.36493     -36.426389     -24022.149    
    696000   1.1525239      300.43071      691.61906     -23982.501    
    697000   1.1467571      296.86849      1042.0501     -24037.314    
    698000   1.1397132      300.98917      519.58137     -24060.137    
    699000   1.13552        291.11917     -235.95125     -24004.104    
    700000   1.1648955      302.81742      866.10661     -24071.152    
    701000   1.1556905      297.90756     -61.458808     -23971.232    
    702000   1.152927       307.08058     -102.26244     -23900.914    
    703000   1.1521126      297.56714     -60.493483     -24013.03     
    704000   1.1619724      302.59531      1753.5888     -23992.884    
    705000   1.1484472      288.46512     -664.54256     -24038.704    
    706000   1.1498247      303.17187      74.18959      -24017.806    
    707000   1.1568488      289.16077     -513.96218     -24110.869    
    708000   1.147191       299.13822     -1382.7048     -23960.535    
    709000   1.1520856      299.07181     -76.015019     -23966.711    
    710000   1.1604615      302.64502      132.26544     -24048.121    
    711000   1.1540587      293.29697      121.42687     -24053.471    
    712000   1.1465575      301.26801     -224.99958     -23946.321    
    713000   1.1501875      293.12323      126.16017     -24070.091    
    714000   1.1537092      300.21183      814.12881     -23965.046    
    715000   1.1510775      297.12156     -756.01475     -23963.116    
    716000   1.1562639      301.57139      282.24883     -23996.808    
    717000   1.1418898      294.40162     -700.66172     -24083.94     
    718000   1.1449065      286.75584     -327.67955     -24103.573    
    719000   1.1560852      301.57912     -721.21745     -24014.548    
    720000   1.1508202      297.65653     -346.02481     -23990.379    
    721000   1.1456917      301.2364      -595.71559     -23981.896    
    722000   1.1434547      308.46799     -174.75796     -23982.371    
    723000   1.1521152      298.82868      549.51834     -24003.369    
    724000   1.1489662      300.42354      1118.4489     -23999.065    
    725000   1.1436815      296.65528     -431.52141     -23959.907    
    726000   1.145304       301.70142     -499.15734     -24003.7      
    727000   1.1436909      295.82052      72.866037     -23951.006    
    728000   1.1473069      295.85944     -436.18712     -24002.621    
    729000   1.1576134      296.3061       986.04238     -23915.081    
    730000   1.1482988      299.53794      203.9608      -23945.595    
    731000   1.1534043      299.07877      1106.5266     -23987.873    
    732000   1.1593379      295.96612      911.35339     -24085.839    
    733000   1.1375744      292.37536     -1110.4784     -24043.817    
    734000   1.1585714      305.93378      52.279585     -23982.971    
    735000   1.143661       291.94382     -260.13837     -23990.606    
    736000   1.1642204      303.83501      913.21219     -23875.824    
    737000   1.1467867      292.21229     -291.08834     -23985.198    
    738000   1.154411       296.68832     -215.50604     -23957.784    
    739000   1.1520089      296.14558     -475.21828     -23971.898    
    740000   1.1556632      292.27473     -206.15765     -24013.79     
    741000   1.1527861      308.15208      502.79926     -23978.805    
    742000   1.1533781      296.50189      62.938278     -24001.045    
    743000   1.1475657      295.17423      123.06014     -23947.594    
    744000   1.1525022      293.30659     -458.64648     -24004.332    
    745000   1.157837       294.4149      -488.62463     -24065.848    
    746000   1.1511496      298.14347     -305.41839     -23948.452    
    747000   1.1451585      295.23463      136.63542     -24068.797    
    748000   1.1561028      300.32643      387.71973     -24022.863    
    749000   1.1380424      296.70787     -327.84714     -24126.373    
    750000   1.1462774      296.79911      631.5122      -23996.188    
    751000   1.1495298      298.09194     -0.729223      -24028.619    
    752000   1.1497171      309.49394      40.9243       -24009.375    
    753000   1.13986        297.73375      316.90099     -23937.243    
    754000   1.1522213      299.58235     -746.45594     -23986.499    
    755000   1.1507681      307.17676      595.29946     -23918.471    
    756000   1.153714       303.8475      -33.120555     -23985.624    
    757000   1.1464696      298.28506     -213.51976     -24036.762    
    758000   1.1568003      304.00174     -139.43964     -24013.085    
    759000   1.1581108      296.71209      477.13888     -24057.543    
    760000   1.149152       281.95272      142.81696     -24134.056    
    761000   1.1577832      294.2308      -88.347184     -24075.807    
    762000   1.1602792      300.79423      549.23202     -23948.676    
    763000   1.1539247      294.12659     -356.5999      -24051.307    
    764000   1.1561438      289.5991       27.305977     -24093.185    
    765000   1.1589015      299.02215      763.69796     -24038.703    
    766000   1.1457541      302.89643     -137.16216     -23929.446    
    767000   1.1623318      301.87335      650.41981     -23949.711    
    768000   1.1384156      295.90258     -1172.1705     -23987.487    
    769000   1.1621961      290.05066      613.01119     -24062.141    
    770000   1.1426963      289.37568     -994.18987     -24043.141    
    771000   1.1516921      296.455        529.68377     -23975.53     
    772000   1.1581988      295.94759      206.13007     -23992.024    
    773000   1.1492648      301.01248      940.42857     -23937.596    
    774000   1.1518498      291.99602      786.76878     -24039.376    
    775000   1.1487828      285.2491       169.4229      -24094.596    
    776000   1.1399928      303.94091     -433.19991     -23860.362    
    777000   1.1631001      300.94477      33.853403     -23968.75     
    778000   1.1460956      290.33018     -564.14432     -24047.612    
    779000   1.1543121      298.97428      614.83974     -24048.045    
    780000   1.1385436      298.14668     -296.41131     -24043.837    
    781000   1.1506503      294.33903      350.9101      -24077.332    
    782000   1.1490642      306.30839      737.57582     -23953.432    
    783000   1.1365195      296.91456     -1228.9091     -24036.383    
    784000   1.1685872      301.83357      917.5432      -24044.659    
    785000   1.1471524      303.09014      318.63813     -23947.835    
    786000   1.1611256      286.53397      665.37364     -24087.166    
    787000   1.1465799      296.61263     -378.32678     -23972.676    
    788000   1.1510179      296.90536      379.61011     -23929.493    
    789000   1.1581494      297.96761      341.86142     -24010.307    
    790000   1.1527871      306.67846      396.82957     -23835.519    
    791000   1.1506901      291.5603      -975.90533     -24005.017    
    792000   1.1485187      296.35834     -293.22379     -23927.545    
    793000   1.1531806      302.61648      292.66041     -23948.438    
    794000   1.1675572      299.19722      457.15771     -24049.18     
    795000   1.1553864      297.94057      220.60582     -23976.958    
    796000   1.1462743      290.9839      -316.49629     -24075.872    
    797000   1.1455427      294.89505      189.97253     -23997.721    
    798000   1.1470288      300.42676     -633.90877     -23900.135    
    799000   1.1493897      297.24928     -144.30514     -24036.907    
    800000   1.161703       299.34671      15.27492      -23983.217    
    801000   1.1522599      297.12054     -688.5694      -24030.382    
    802000   1.1550373      294.25656     -198.63127     -23993.552    
    803000   1.1549421      294.06688     -565.15748     -24004.259    
    804000   1.1595643      295.5829      -32.635472     -24021.11     
    805000   1.157283       313.63856     -651.16727     -23836.496    
    806000   1.1618902      303.28518      597.12487     -23983.755    
    807000   1.1549498      298.26107      190.73749     -23983.994    
    808000   1.1351853      300.45707      208.36987     -23899.283    
    809000   1.1575224      302.00087      132.60903     -23995.795    
    810000   1.1432566      294.78996     -153.95072     -23957.721    
    811000   1.1455592      299.05652      50.041319     -23966.288    
    812000   1.1498999      291.34947     -949.97353     -24037.418    
    813000   1.1571822      301.31667      650.22514     -23951.301    
    814000   1.1528388      293.59513      373.57858     -23987.555    
    815000   1.1572147      295.99776      1033.3096     -24026.219    
    816000   1.136794       293.59548      248.33917     -23920.893    
    817000   1.1491928      290.8387       628.66489     -24002.735    
    818000   1.1505275      295.46405      258.93545     -24038.33     
    819000   1.1406214      299.30878     -785.43404     -23990.066    
    820000   1.1571148      288.56003      915.60856     -24086.9      
    821000   1.1472169      298.52554     -55.331109     -24012.328    
    822000   1.1443265      293.19452      6.342262      -24069.045    
    823000   1.1530378      298.84766     -576.26996     -23957.113    
    824000   1.1460914      296.68324     -626.7855      -24013.138    
    825000   1.1444615      301.67563     -700.33509     -24064.997    
    826000   1.1611198      300.45618      762.0093      -24004.319    
    827000   1.1450552      300.57529      232.21755     -23983.022    
    828000   1.1501644      304.45912      379.57042     -23919.15     
    829000   1.1554311      296.97391      45.456546     -24022.32     
    830000   1.1442497      302.6208      -694.17922     -23870.182    
    831000   1.1512284      303.30562      20.404796     -23991.214    
    832000   1.1451703      308.59914      64.03279      -23885.638    
    833000   1.1511499      301.02087      332.39886     -23939.607    
    834000   1.153291       294.73575     -383.09915     -24088.869    
    835000   1.1473259      296.82747     -629.7755      -23977.05     
    836000   1.1493435      291.37894      575.36859     -24060.577    
    837000   1.1639573      300.53603      570.71033     -23954.97     
    838000   1.1460689      296.59317     -913.08633     -24021.015    
    839000   1.1492759      294.62265     -465.28692     -24056.02     
    840000   1.1598009      306.85239     -188.21432     -24024.673    
    841000   1.1442622      294.59303     -1564.2085     -24147.23     
    842000   1.1462742      288.37068      500.2205      -24021.841    
    843000   1.1334604      297.38057      272.5025      -24043.106    
    844000   1.1419526      291.16102      28.487411     -24100.312    
    845000   1.14135        295.89612     -404.21539     -24044.676    
    846000   1.1475005      299.6122       583.82211     -23958.427    
    847000   1.1444642      303.26486      112.59881     -23959.65     
    848000   1.153658       295.56279      326.06701     -24011.336    
    849000   1.1419223      300.91131      25.531312     -23927.935    
    850000   1.1474977      297.87193     -16.936423     -24058.463    
    851000   1.1635647      302.77727      725.24174     -23981.071    
    852000   1.1539134      303.70491      60.042828     -23980.309    
    853000   1.1612213      299.6378       732.40554     -24011.528    
    854000   1.1545907      305.27063     -123.65911     -23906.364    
    855000   1.1601251      296.12885      343.93477     -23972.114    
    856000   1.152316       290.33594     -591.62497     -24014.201    
    857000   1.1593826      297.1871       256.60835     -23998.838    
    858000   1.1451439      309.63927     -121.00941     -23932.728    
    859000   1.1497165      300.37204     -63.489902     -24030.22     
    860000   1.1590892      296.77483      565.68036     -23969.824    
    861000   1.1333395      295.67028     -186.23256     -23958.889    
    862000   1.1564408      299.62455      350.81865     -24053.319    
    863000   1.1362361      298.09341     -699.3402      -23960.371    
    864000   1.1598454      291.53259      172.58983     -24142.268    
    865000   1.1526561      296.27025      473.20211     -23954.323    
    866000   1.1603665      289.76798      892.63207     -23995.362    
    867000   1.1416499      301.24869     -1456.9192     -24029.754    
    868000   1.1606223      299.34102      560.88239     -24071.005    
    869000   1.141393       290.26342     -1296.2944     -24032.694    
    870000   1.1481837      298.90166     -59.324084     -24023.832    
    871000   1.1415635      297.33937     -389.73483     -23998.291    
    872000   1.153791       293.46988     -207.82545     -24089.329    
    873000   1.1556468      303.29961      456.46335     -23980.096    
    874000   1.1398303      304.19653      414.66352     -23895.839    
    875000   1.147119       302.15476      523.50648     -24014.143    
    876000   1.1482292      294.13296      456.43927     -24016.053    
    877000   1.1447808      292.20772      53.073556     -24055.471    
    878000   1.146345       301.079       -987.78587     -23921.512    
    879000   1.160641       291.42956      712.63817     -24079.437    
    880000   1.1498722      294.90122      187.67002     -24003.252    
    881000   1.1500311      293.18812     -335.8692      -24049.324    
    882000   1.148122       298.12802      415.36005     -24000.514    
    883000   1.1470619      312.54235     -485.77892     -23913.714    
    884000   1.1581022      301.02127      296.74816     -24002.009    
    885000   1.1485263      283.45672     -280.2035      -24090.896    
[...]
   9747000   1.1481014      296.69606      334.47872     -24032.687    
   9748000   1.1430096      302.24141     -398.92137     -23863.769    
   9749000   1.1542427      297.48286      21.124443     -24066.842    
   9750000   1.1485019      297.29517     -130.44086     -23983.685    
   9751000   1.1458042      301.71936      122.85908     -24018.346    
   9752000   1.1449145      310.05817     -485.36515     -23888.084    
   9753000   1.1363012      295.51062     -340.74553     -24014.238    
   9754000   1.1531226      280.36207     -665.97012     -24194.992    
   9755000   1.1483826      302.18858      397.2153      -23937.594    
   9756000   1.1604146      296.3626       224.57982     -24023.031    
   9757000   1.1497347      298.43955     -131.1921      -24022.005    
   9758000   1.1533571      307.19996      58.45762      -23980.937    
   9759000   1.1585556      295.07919      213.52291     -24079.754    
   9760000   1.1559992      299.81788     -419.68795     -24042.278    
   9761000   1.1514461      300.98846      152.51582     -24069.064    
   9762000   1.1488074      292.17189     -304.61121     -24031.202    
   9763000   1.1546544      298.43634      95.6978       -24033.211    
   9764000   1.1511163      284.45441     -208.72987     -24148.457    
   9765000   1.1577655      296.01529     -578.10876     -24084.188    
   9766000   1.1473902      300.09491     -779.90773     -23966.725    
   9767000   1.1607496      300.8416      -307.00137     -24064.302    
   9768000   1.1584647      310.50538     -272.69622     -23957.821    
   9769000   1.1571643      300.33631     -589.98392     -24027.832    
   9770000   1.1513224      297.08778      162.37383     -24135.9      
   9771000   1.1563284      301.73173     -360.68643     -24026.918    
   9772000   1.1644561      298.61947     -346.26548     -24052.477    
   9773000   1.150496       293.3733      -91.400422     -24006.913    
   9774000   1.1569319      302.97221     -219.38277     -23963.005    
   9775000   1.1568775      298.8707       238.6577      -24141.547    
   9776000   1.1436832      293.49568     -509.89237     -24042.269    
   9777000   1.1401066      301.61258     -215.85947     -24009.85     
   9778000   1.1483256      309.19187     -1142.5069     -24021.475    
   9779000   1.1503249      288.07772     -628.86894     -24060.154    
   9780000   1.1480319      305.4492      -229.72025     -23977.996    
   9781000   1.1508416      297.9688       187.82188     -23988.013    
   9782000   1.146814       302.04917     -792.47734     -24023.966    
   9783000   1.1520663      298.82827      276.35825     -24024.053    
   9784000   1.1420732      297.94636     -819.49597     -23991.181    
   9785000   1.1615921      297.17171      1241.6736     -23949.995    
   9786000   1.1540951      294.00076      306.24855     -23991.711    
   9787000   1.152545       305.5918       202.62596     -23964.415    
   9788000   1.152213       302.84347      415.80289     -23964.659    
   9789000   1.1518328      293.70577      67.034028     -24093.192    
   9790000   1.1531127      299.06986      541.70302     -24009.566    
   9791000   1.1624985      304.11894      495.06514     -23901.244    
   9792000   1.1420111      302.17185      379.22668     -23984.178    
   9793000   1.1512783      303.66648     -97.825458     -23973.34     
   9794000   1.1492101      297.38834     -387.19213     -24015.003    
   9795000   1.1517097      295.5972       44.310658     -24061.306    
   9796000   1.1525603      299.55627     -468.53148     -23976.157    
   9797000   1.1539843      293.06578      1044.7084     -24074.193    
   9798000   1.1350409      299.49466     -532.19569     -24013.03     
   9799000   1.1573358      296.85858      142.19826     -24101.391    
   9800000   1.1441012      294.18895      102.7269      -24096.425    
   9801000   1.1453164      295.86366     -2.5221716     -24127.488    
   9802000   1.140488       298.47183     -525.39093     -23974.934    
   9803000   1.1515849      303.43756      1084.048      -23935.516    
   9804000   1.1399084      302.37322      80.01053      -23996.623    
   9805000   1.1468942      290.5872       445.7613      -24127.771    
   9806000   1.1342772      298.71186      222.19943     -23943.233    
   9807000   1.1509824      295.61167      155.5377      -24027.298    
   9808000   1.1548086      311.82546      678.26396     -23881.848    
   9809000   1.1590766      294.82083      941.22135     -24046.974    
   9810000   1.1550474      303.08468     -17.134242     -23992.843    
   9811000   1.1487205      292.898        62.285122     -24040.194    
   9812000   1.1517752      298.94278     -400.10034     -23925.117    
   9813000   1.1655047      292.43613      380.11091     -24129.181    
   9814000   1.1543039      287.82702     -437.8937      -24109.922    
   9815000   1.1539738      305.76752     -28.852698     -23893.969    
   9816000   1.1524457      298.91628     -243.27834     -24072.072    
   9817000   1.1469351      300.07538     -456.86864     -23921.311    
   9818000   1.1568809      297.02048      343.85932     -24073.648    
   9819000   1.1489987      302.84766     -365.93805     -23971.355    
   9820000   1.1456268      297.48232     -136.13444     -23957.529    
   9821000   1.1500838      296.97243      7.5578074     -23929.542    
   9822000   1.1512489      305.09375      409.8504      -24025.015    
   9823000   1.1446014      296.10429      142.7672      -23943.724    
   9824000   1.1493227      304.00801     -411.15153     -23959.81     
   9825000   1.1570208      297.38859     -487.76404     -24079.421    
   9826000   1.154829       296.35357      200.59283     -24044.447    
   9827000   1.1426991      296.91951     -406.11595     -23968.693    
   9828000   1.1587316      301.76473      744.7751      -24015.525    
   9829000   1.1623213      304.70016      1211.0644     -23859.004    
   9830000   1.1581952      299.58383     -199.23032     -24008.632    
   9831000   1.1629621      292.10664      373.28468     -24036.436    
   9832000   1.1484748      298.30448     -473.55907     -24011.649    
   9833000   1.1615149      291.70377      1045.5416     -24082.796    
   9834000   1.1483726      296.82783     -1371.2268     -23957.949    
   9835000   1.1579958      295.76624     -919.6895      -23985.557    
   9836000   1.1506057      294.11298      233.5918      -24069.238    
   9837000   1.1571701      296.99319     -153.92185     -24026.247    
   9838000   1.1334524      303.80244     -494.86021     -23944.931    
   9839000   1.1563604      298.72143      585.40989     -24003.157    
   9840000   1.1403382      298.07973     -718.85181     -24017.061    
   9841000   1.1576229      297.19571      213.73905     -24020.86     
   9842000   1.1460584      295.73997     -201.32409     -23992.39     
   9843000   1.1532547      299.35734      56.956181     -24094.221    
   9844000   1.1364805      295.0167      -409.41384     -24017.546    
   9845000   1.1623097      298.68091      445.70146     -24129.088    
   9846000   1.1444926      295.92928     -554.39551     -23912.462    
   9847000   1.1566081      303.3457       197.78016     -23925.623    
   9848000   1.1425517      300.16644     -255.65327     -23874.741    
   9849000   1.1516358      292.80457     -504.90669     -24036.502    
   9850000   1.1508802      297.01254     -325.465       -24038.989    
   9851000   1.1491704      295.297        353.60503     -23995.079    
   9852000   1.1575717      302.69981     -152.40405     -23980.349    
   9853000   1.1542099      307.18253      83.914275     -23927.236    
   9854000   1.1642261      301.62865      1011.5548     -23937.651    
   9855000   1.1556486      293.55132     -1096.0497     -24132.146    
   9856000   1.1669915      291.8757      -157.76045     -24102.441    
   9857000   1.1585174      294.11362      176.22421     -24113.16     
   9858000   1.1472879      304.76517     -410.30055     -24005.398    
   9859000   1.155326       298.55219      695.8471      -24040.292    
   9860000   1.1489756      296.57248     -297.57371     -24024.96     
   9861000   1.1476445      295.12187      242.06563     -24001.223    
   9862000   1.162224       297.96019      994.00127     -24070.911    
   9863000   1.1502686      293.56468     -262.54088     -24079.903    
   9864000   1.1523814      302.03154      653.16034     -23977.688    
   9865000   1.1376606      300.66366     -304.69811     -24012.878    
   9866000   1.1679893      298.3583       585.71219     -23985.514    
   9867000   1.1438848      293.68736     -761.18184     -23912.433    
   9868000   1.1532612      292.34322     -587.28926     -24037.123    
   9869000   1.1490677      290.35326     -102.60001     -23995.838    
   9870000   1.1441087      303.88699     -146.38905     -23936.19     
   9871000   1.1518924      291.1476       147.99459     -24132.701    
   9872000   1.1384818      301.65423      179.62556     -23976.624    
   9873000   1.1566317      295.6892       630.20237     -23992.884    
   9874000   1.1414156      299.73533      346.79987     -24076.066    
   9875000   1.1496269      301.38132      356.71763     -24002.628    
   9876000   1.1468554      303.49886      1123.4877     -23820.629    
   9877000   1.1494356      282.94951     -165.36112     -24066.644    
   9878000   1.1553297      298.89092      303.07092     -24023.177    
   9879000   1.1507655      295.80176     -163.05466     -24021.82     
   9880000   1.1511885      300.86596     -311.75846     -24017.028    
   9881000   1.1485775      292.70321      721.45245     -23983.475    
   9882000   1.1434402      308.45695      79.268726     -23982.322    
   9883000   1.1536709      300.84938      846.65504     -23944.283    
   9884000   1.1264961      295.34482     -491.75037     -23942.444    
   9885000   1.1606481      298.52955      588.68793     -24014.842    
   9886000   1.1537068      301.97873      722.01323     -23973.279    
   9887000   1.1394095      278.57381     -469.35809     -24046.628    
   9888000   1.1466019      299.87607      19.376242     -23921.407    
   9889000   1.1518159      303.01079     -884.49244     -23985.902    
   9890000   1.1553038      302.34264      1203.1073     -23955.836    
   9891000   1.1404425      298.86136     -217.17045     -24002.032    
   9892000   1.1453318      297.99397     -579.36397     -23873.26     
   9893000   1.1339702      296.66663     -829.63978     -24041.842    
   9894000   1.1410254      301.18725      46.204474     -23941.03     
   9895000   1.1435778      301.35351      540.41168     -23901.33     
   9896000   1.1537636      293.44067     -313.53341     -23999.336    
   9897000   1.147609       298.18159      381.15358     -23897.251    
   9898000   1.1442821      300.96751      408.07649     -24000.105    
   9899000   1.153812       293.77667     -204.30606     -23990.107    
   9900000   1.1510636      290.03236     -322.13476     -24079.259    
   9901000   1.1431018      294.41675     -782.52587     -24110.551    
   9902000   1.1422378      301.85346     -656.78868     -23984.684    
   9903000   1.1534089      294.2493       127.14957     -23953.891    
   9904000   1.1494081      296.19611      309.63405     -23955.802    
   9905000   1.1513399      299.19779      54.133638     -23952.824    
   9906000   1.1613257      288.51773      158.746       -24133.853    
   9907000   1.1554401      306.67677     -21.592694     -23995.053    
   9908000   1.1556916      299.74807     -104.09663     -24001.156    
   9909000   1.1534872      304.72345     -287.42901     -23931.432    
   9910000   1.1482056      299.69093     -635.22282     -23984.154    
   9911000   1.1710108      301.09784      1119.3843     -23999.66     
   9912000   1.1571976      291.37724      49.14759      -24052.906    
   9913000   1.1615382      300.24796      3.9943405     -23986.099    
   9914000   1.1467413      307.14502     -194.98699     -23927.911    
   9915000   1.1521234      293.53273      54.221958     -23966.167    
   9916000   1.1564819      295.47369     -66.089998     -24047.354    
   9917000   1.1458869      298.9071      -621.84439     -23866.717    
   9918000   1.1446572      305.55474     -474.20536     -23951.163    
   9919000   1.1522311      294.14543      200.43463     -24085.23     
   9920000   1.1512415      287.60698     -216.71003     -24122.306    
   9921000   1.1570614      293.01832     -128.48923     -24007.902    
   9922000   1.1584351      292.83666     -113.5394      -24075.258    
   9923000   1.1561407      310.95027     -248.30214     -23923.684    
   9924000   1.1541894      294.51288      768.58186     -24013.926    
   9925000   1.1501502      304.73423      177.19894     -23940.907    
   9926000   1.1424939      302.22534     -600.50879     -23970.385    
   9927000   1.1511541      293.12629     -390.1229      -23977.017    
   9928000   1.1449331      296.5484      -254.17754     -24014.936    
   9929000   1.1527146      303.48938      985.41213     -24060.151    
   9930000   1.1445589      303.79464     -84.582295     -23916.436    
   9931000   1.1507282      299.09518      427.71479     -23948.085    
   9932000   1.1482863      293.14226     -773.4005      -24005.251    
   9933000   1.1497577      290.73729     -81.567003     -23975.553    
   9934000   1.1450098      308.50303      699.84041     -23899.426    
   9935000   1.1473409      300.18222     -126.20555     -23914.591    
   9936000   1.1477151      302.93968      125.1345      -23892.827    
   9937000   1.1537953      304.07504     -269.41425     -23936.037    
   9938000   1.1466667      298.02725     -174.94867     -23981.034    
   9939000   1.1470401      296.35013     -187.28214     -23989.486    
   9940000   1.152485       297.8503       988.77571     -24101.992    
   9941000   1.1588865      297.08304     -271.36034     -24030.702    
   9942000   1.1440997      299.57186     -950.07287     -24007.792    
   9943000   1.138388       297.44694     -115.42039     -24044.029    
   9944000   1.1333384      294.10172     -400.54973     -23984.481    
   9945000   1.1419247      304.29227      440.90321     -23966.292    
   9946000   1.1576357      304.01547      987.88624     -24050.15     
   9947000   1.145692       297.49297     -586.13147     -23966.056    
   9948000   1.1566971      305.84708      469.79914     -24026.173    
   9949000   1.152982       299.84013      327.68768     -23974.467    
   9950000   1.1597328      291.43369      326.64335     -24060.709    
   9951000   1.1421825      306.68723      4.2428594     -23904.959    
   9952000   1.1625235      299.32162      507.57009     -24000.206    
   9953000   1.1352155      299.47257     -776.27442     -23968.914    
   9954000   1.1547849      303.05755      587.73353     -24069.712    
   9955000   1.1476887      295.03718      273.60156     -24078.087    
   9956000   1.1363108      289.91251     -713.20727     -23938.691    
   9957000   1.1542427      294.48047      346.34489     -24021.75     
   9958000   1.1588114      292.14985     -389.57746     -24054.578    
   9959000   1.1510764      289.32488     -795.64158     -24079.441    
   9960000   1.1542832      293.24002     -301.18656     -24037.64     
   9961000   1.1571699      295.33919      202.93226     -24024.993    
   9962000   1.1415764      302.82253     -435.1126      -23971.682    
   9963000   1.1566621      301.55404     -152.18147     -23995.917    
   9964000   1.1444747      299.39379     -687.22743     -24054.568    
   9965000   1.157301       293.72376      465.71139     -24072.124    
   9966000   1.152907       299.3779       310.56008     -23974.808    
   9967000   1.1513022      295.46519      492.76202     -23984.38     
   9968000   1.1517451      299.59363      200.71378     -23906.951    
   9969000   1.1552044      294.33093      477.43017     -24017.999    
   9970000   1.1477767      296.62446     -163.07449     -23928.659    
   9971000   1.1556966      295.59168      1076.4587     -23922.384    
   9972000   1.1551094      294.46364     -623.3985      -23985.876    
   9973000   1.1534138      305.08325     -225.11365     -24000.886    
   9974000   1.1457074      292.97945     -809.69874     -24033.854    
   9975000   1.1518746      301.38368      235.02234     -24040.129    
   9976000   1.1500577      300.38526      110.20019     -23953.731    
   9977000   1.1613345      300.36322      888.03498     -24064.184    
   9978000   1.153227       301.28708     -1201.6576     -24106.75     
   9979000   1.1393464      295.6159      -363.4433      -23938.629    
   9980000   1.1481422      297.63732      984.5863      -24018.172    
   9981000   1.145594       298.83776     -538.09291     -23972.966    
   9982000   1.1595575      298.41733     -103.34564     -24043.968    
   9983000   1.1498226      295.27197     -2.9553774     -24035.54     
   9984000   1.1447403      301.26007     -549.40151     -23875.972    
   9985000   1.1469144      308.5654      -399.40577     -23916.067    
   9986000   1.1533888      302.41173      212.6977      -23997.14     
   9987000   1.1390353      297.57612      125.00158     -24015.526    
   9988000   1.1533202      295.37955      1071.7082     -24014.395    
   9989000   1.1483607      309.38066      163.76412     -23920.763    
   9990000   1.140099       307.05512     -771.63622     -23898.764    
   9991000   1.1531082      294.96939     -552.8146      -24056.692    
   9992000   1.1500112      296.15776     -127.19944     -23970.838    
   9993000   1.1459504      297.55282     -655.82211     -23969.145    
   9994000   1.1446969      294.20571      618.35701     -23992.971    
   9995000   1.150403       301.20936      80.706513     -23985.403    
   9996000   1.1463309      292.15105      26.738161     -24067.356    
   9997000   1.1614652      292.93979      966.66368     -24016.952    
   9998000   1.156801       302.61659     -66.844825     -24001.321    
   9999000   1.1535816      295.57947      170.06654     -23975.567    
  10000000   1.1571565      296.55683     -535.13604     -23959.721    
Loop time of 36712.7 on 32 procs for 10000000 steps with 3324 atoms

Performance: 23.534 ns/day, 1.020 hours/ns, 272.385 timesteps/s
99.4% CPU use with 32 MPI tasks x no OpenMP threads

MPI task timing breakdown:
Section |  min time  |  avg time  |  max time  |%varavg| %total
---------------------------------------------------------------
Pair    | 11963      | 13227      | 14047      | 468.5 | 36.03
Bond    | 43.065     | 48.225     | 58.369     |  56.9 |  0.13
Kspace  | 8093.3     | 8973.3     | 10137      | 548.4 | 24.44
Neigh   | 1696.3     | 1901.3     | 2017.1     | 246.7 |  5.18
Comm    | 1938       | 2266       | 2801.1     | 611.5 |  6.17
Output  | 0.76792    | 3.8604     | 99.289     | 872.3 |  0.01
Modify  | 9431.3     | 9805.1     | 10059      | 171.3 | 26.71
Other   |            | 487.8      |            |       |  1.33

Nlocal:        103.875 ave         115 max          95 min
Histogram: 2 3 3 4 9 3 2 2 1 3
Nghost:        4414.69 ave        4458 max        4385 min
Histogram: 2 4 6 3 8 3 4 0 1 1
Neighs:        42730.1 ave       49666 max       37368 min
Histogram: 1 5 3 5 7 5 2 2 1 1

Total # of neighbors = 1367362
Ave neighs/atom = 411.36041
Ave special neighs/atom = 2.0649819
Neighbor list builds = 1327491
Dangerous builds = 0
ERROR: Cannot reset timestep with active dump - must undump first (../output.cpp:637)
Last command: reset_timestep 0
srun: error: cmp016: tasks 0-7: Exited with exit code 1
srun: launch/slurm: _step_signal: Terminating StepId=2016062.0
srun: error: cmp142: tasks 8-16,18-31: Terminated
srun: error: cmp142: task 17: Exited with exit code 1
srun: Force Terminated StepId=2016062.0
