3486
 Atoms. Timestep: 0
Ow 17.6593 13.3649 25.1341
H 17.1413 13.9651 25.6705
H 18.5678 13.5631 25.3612
Ow 28.4189 1.46893 5.53397
H 28.9195 0.835521 5.01979
H 28.6901 1.31146 6.43837
Ow 21.9159 10.3825 21.3051
H 22.0385 9.67994 21.9436
H 22.1708 9.99358 20.4684
Ow 26.79 11.787 3.46479
H 27.4409 11.6223 2.78248
H 27.2994 12.103 4.21106
Ow 13.045 2.05133 11.473
H 12.9849 2.7005 12.1738
H 12.4513 1.35075 11.7432
Ow 26.6173 19.0544 15.4644
H 25.9397 19.3814 16.0562
H 27.0329 19.8433 15.1163
Ow 3.11839 24.0196 13.1384
H 3.61136 23.5174 12.4895
H 3.54309 23.8169 13.9719
Ow 22.1925 15.5052 26.7507
H 21.7226 14.6817 26.8819
H 23.0617 15.2403 26.4497
Ow 29.7386 0.930646 11.9822
H 30.1614 1.73954 11.6938
H 30.176 32.2289 11.4839
Ow 18.0274 8.39812 9.37051
H 18.4428 8.48645 10.2283
H 18.2802 7.52521 9.07031
Ow 7.91036 28.276 31.9412
H 7.55599 29.0687 32.3435
H 7.31413 27.5798 32.2169
Ow 29.1075 12.9503 20.8575
H 29.4794 12.0772 20.9823
H 29.8426 13.5468 20.9995
Ow 32.1959 23.1741 5.28357
H 31.345 22.8191 5.02662
H 0.458078 22.6631 6.05318
Ow 27.0393 7.56489 3.0122
H 26.5945 6.73287 2.85056
H 27.1824 7.93385 2.14063
Ow 1.30717 32.0945 12.1846
H 0.665689 31.5688 11.7067
H 1.22227 0.983926 11.8131
Ow 5.16677 14.1863 16.398
H 6.03151 14.4031 16.0493
H 5.12627 14.6411 17.2393
Ow 21.662 8.66091 9.81746
H 21.3287 8.96569 10.6614
H 21.4805 7.72111 9.81306
Ow 23.2848 19.5535 21.7601
H 23.1425 19.8131 22.6704
H 22.5886 19.9945 21.2732
Ow 7.91071 10.5857 0.812202
H 8.77804 10.2548 0.5788
H 7.38226 9.79938 0.947642
Ow 18.8833 18.4623 22.6429
H 19.5039 18.8884 23.2341
H 18.7851 19.0762 21.915
Ow 12.5566 3.63933 13.8354
H 13.0895 3.54728 14.6252
H 11.7952 3.08133 13.9935
Ow 3.19542 11.4783 29.1788
H 3.79692 10.8636 28.7586
H 3.48718 12.3403 28.8821
Ow 31.8461 6.52073 31.4628
H 31.9462 7.43075 31.1833
H 30.9056 6.35384 31.4042
Ow 12.5351 31.2147 16.3728
H 13.0758 31.5075 17.1063
H 13.1627 30.9985 15.6831
Ow 1.22107 1.11184 15.6296
H 1.68355 1.42536 14.8523
H 32.2891 1.09016 15.3685
Ow 12.7088 14.4544 19.2844
H 12.7747 15.0895 19.9975
H 11.7966 14.5078 18.9991
Ow 0.913923 30.4124 0.667299
H 31.9808 30.3346 0.42169
H 1.30067 29.5734 0.416497
Ow 4.96907 16.6882 1.48093
H 4.41349 15.9108 1.42488
H 5.66695 16.5308 0.844974
Ow 31.28 25.7451 25.7255
H 31.7478 25.0855 25.2134
H 30.3569 25.5082 25.6358
Ow 9.84333 16.1732 9.56688
H 9.35008 15.3949 9.30757
H 10.0843 16.5912 8.74025
Ow 15.4463 23.1317 8.89829
H 15.0764 22.8164 9.72289
H 15.5278 22.347 8.3562
Ow 29.0366 20.4718 30.6094
H 28.6597 21.347 30.5189
H 29.8838 20.6177 31.0305
Ow 9.48953 10.3283 12.2006
H 9.1343 10.0889 13.0566
H 9.55465 11.283 12.2263
Ow 16.5777 28.9615 20.0947
H 16.3235 29.4276 20.8912
H 17.4068 29.3636 19.8356
Ow 7.64331 19.6762 6.66304
H 7.84242 20.3252 7.33788
H 8.49433 19.4536 6.28558
Ow 1.04709 6.3273 25.537
H 1.69565 6.23232 26.2346
H 32.3373 5.71705 25.7739
Ow 2.00905 27.931 0.486208
H 2.77548 27.6271 0.972478
H 1.27817 27.436 0.856299
Ow 25.5005 19.3934 20.1292
H 24.6711 19.2864 20.5951
H 25.7415 20.3082 20.2751
Ow 1.72936 20.0246 7.53109
H 0.812089 19.981 7.80121
H 2.08509 20.7739 8.00907
Ow 24.1933 6.32455 28.2063
H 24.0309 7.26753 28.1802
H 24.1756 6.10366 29.1375
Ow 15.3684 23.0241 13.502
H 14.8825 22.4944 12.8698
H 15.4181 22.4768 14.2857
Ow 3.28174 29.8876 23.3632
H 4.2255 29.7607 23.4585
H 3.16159 30.1111 22.4403
Ow 14.6414 7.26087 9.97127
H 14.9313 7.41165 9.07153
H 14.6941 6.31185 10.0845
Ow 21.4868 29.9993 17.9918
H 21.79 30.9045 17.9209
H 21.3993 29.7039 17.0855
Ow 32.3099 24.4708 12.3897
H 0.449807 24.3709 11.4464
H 1.17535 24.2678 12.7711
Ow 1.46113 24.5932 16.3533
H 1.17933 24.1467 17.1518
H 1.6206 25.4964 16.6269
Ow 5.77592 7.70683 15.1581
H 6.55141 8.21907 14.929
H 5.5068 8.04719 16.0114
Ow 26.2879 1.38054 32.232
H 27.0868 1.89931 32.3258
H 25.5869 1.96531 0.531618
Ow 31.3737 29.9991 29.7066
H 31.094 29.5375 30.4971
H 31.0073 30.8784 29.7998
Ow 29.8391 10.4066 17.6994
H 30.6786 10.7577 17.9965
H 29.2827 11.1774 17.5874
Ow 31.6688 23.5047 2.37743
H 31.7304 23.6675 1.43617
H 30.7367 23.5939 2.57594
Ow 23.6678 5.58542 22.6672
H 23.9568 6.45209 22.9528
H 22.969 5.35193 23.2783
Ow 11.8349 21.2212 19.0841
H 12.3907 20.8677 19.7786
H 10.9895 20.7904 19.2107
Ow 4.10918 19.2805 5.99617
H 4.56812 19.2057 6.83294
H 4.74043 19.7025 5.41328
Ow 13.5796 26.5909 14.1903
H 13.1418 27.4417 14.2158
H 12.8891 25.9726 13.9511
Ow 8.5256 20.577 21.2078
H 7.94543 20.6609 21.9645
H 8.06061 19.9886 20.6129
Ow 14.1325 18.1584 24.1538
H 14.3362 18.4486 25.0429
H 14.8099 17.5133 23.9508
Ow 21.2943 19.1033 1.29184
H 21.6459 18.2408 1.51258
H 20.3754 18.9406 1.07905
Ow 0.457286 29.9531 3.56172
H 0.571836 30.016 2.61348
H 31.9477 29.1459 3.69027
Ow 29.5438 17.5063 20.0243
H 29.5942 18.458 19.935
H 30.3551 17.185 19.6309
Ow 19.4095 24.1812 1.38763
H 19.6155 24.68 2.17819
H 18.6651 23.6333 1.63666
Ow 22.7439 26.847 27.1105
H 22.9069 27.2005 27.985
H 21.8166 27.0218 26.95
Ow 24.4834 19.6505 17.5235
H 24.9653 19.5505 18.3444
H 23.6897 19.1298 17.6461
Ow 19.9653 13.9975 26.3116
H 19.2228 14.2811 26.845
H 20.193 13.1342 26.6569
Ow 31.3151 15.3704 0.673265
H 30.6393 14.7235 0.876113
H 31.1203 16.1096 1.24926
Ow 15.3135 28.3503 17.2929
H 14.384 28.5758 17.3319
H 15.7578 29.1869 17.1554
Ow 3.42655 26.6879 21.8577
H 4.27638 26.8677 21.4556
H 2.96739 26.1459 21.2161
Ow 29.6898 14.7548 28.3286
H 29.4493 15.675 28.4364
H 29.1247 14.2855 28.9424
Ow 12.6027 31.5619 23.8794
H 12.9381 0.467835 23.9385
H 11.6707 31.6411 24.0827
Ow 31.2731 16.4999 30.1729
H 31.1488 16.0835 31.0258
H 30.402 16.8133 29.9297
Ow 10.3995 12.9807 22.272
H 9.91658 12.3201 21.7753
H 11.3084 12.8757 21.9903
Ow 17.4378 12.9997 5.10135
H 17.7493 13.7338 5.63083
H 17.3527 13.3597 4.21851
Ow 25.5371 17.251 23.2708
H 24.812 17.2743 22.6463
H 25.5933 18.1456 23.6068
Ow 3.00152 12.5394 32.2792
H 2.33625 12.9071 0.872226
H 2.90245 11.5917 0.38141
Ow 25.8728 24.4696 30.235
H 25.4516 24.0489 29.4853
H 26.6626 23.9512 30.3886
Ow 20.6869 23.7616 14.7165
H 21.1913 24.0072 13.941
H 21.155 23.0095 15.079
Ow 20.9722 26.9911 10.1624
H 20.2046 27.5326 9.9786
H 20.9898 26.3506 9.45118
Ow 18.9483 21.7144 12.2573
H 18.4703 22.4744 12.5893
H 19.6485 22.0868 11.7213
Ow 26.0089 28.1305 0.588415
H 26.5898 27.9381 1.32448
H 25.8406 29.0703 0.65487
Ow 20.3072 3.65723 12.9962
H 20.6294 2.90247 12.5034
H 20.2089 3.33474 13.8921
Ow 26.9444 4.29477 7.98534
H 26.6742 3.393 8.15866
H 27.7887 4.38179 8.42758
Ow 32.0849 20.7052 24.567
H 32.1919 19.9327 24.0119
H 31.2164 21.0415 24.3453
Ow 23.7189 24.761 8.88562
H 24.0801 24.0918 9.46702
H 24.3677 24.8476 8.1874
Ow 1.41864 18.7912 4.58542
H 0.511772 18.8283 4.88949
H 1.35542 18.8609 3.63285
Ow 9.76358 5.62154 22.4558
H 10.2495 5.01841 23.0182
H 9.97896 6.49091 22.7935
Ow 32.3587 5.45418 4.07194
H 32.2651 6.40643 4.0429
H 0.536772 5.20159 3.16393
Ow 13.9142 23.6865 6.46508
H 14.6259 24.1108 5.98585
H 13.2338 24.3569 6.52751
Ow 25.3559 25.0427 20.9815
H 25.9139 25.5844 20.4234
H 25.8682 24.9131 21.7796
Ow 18.1623 8.30919 23.0865
H 17.615 7.53323 23.2078
H 18.885 8.1919 23.7031
Ow 31.4295 12.9838 10.4623
H 30.7198 12.5108 10.8966
H 31.0322 13.3331 9.66462
Ow 10.7692 19.3243 22.6281
H 9.96732 19.588 22.1768
H 11.4738 19.5691 22.0282
Ow 31.6688 18.7984 16.69
H 31.8508 18.0073 17.1975
H 31.7228 18.5155 15.7771
Ow 2.73822 5.75071 22.4836
H 2.90956 5.39592 23.3559
H 1.96219 6.29971 22.5959
Ow 29.5103 25.3681 22.4841
H 28.8229 24.8696 22.926
H 30.0888 24.7021 22.1125
Ow 15.6899 1.16508 7.38471
H 14.8903 0.749349 7.06199
H 15.4789 1.42777 8.28065
Ow 16.6706 22.0723 18.408
H 17.546 22.3315 18.6957
H 16.6652 21.1183 18.4856
Ow 20.0166 1.82366 26.8042
H 19.6726 1.16748 27.4103
H 19.8511 1.45792 25.9352
Ow 22.0973 28.9085 12.1001
H 21.7405 28.6977 12.963
H 22.1647 29.8633 12.095
Ow 26.76 8.44833 17.5428
H 26.5206 8.91617 18.3428
H 27.024 9.13669 16.9322
Ow 20.4493 7.5586 24.7554
H 20.669 6.63523 24.6313
H 21.2953 8.00592 24.7758
Ow 22.4907 29.3371 9.05148
H 21.9833 29.1976 8.25193
H 22.472 30.2847 9.18545
Ow 16.4723 20.7294 21.6542
H 16.4949 21.4523 21.0272
H 16.7642 21.1178 22.4789
Ow 4.23476 1.74713 0.39291
H 3.7311 2.47612 0.755036
H 3.97256 1.70778 31.4618
Ow 1.34219 5.87744 6.84468
H 1.7195 6.69215 6.51281
H 2.03223 5.49739 7.38841
Ow 16.7786 31.2481 3.28675
H 17.5587 31.2709 2.73224
H 17.0496 30.7572 4.06224
Ow 9.32338 31.0331 29.7627
H 9.21352 31.5011 28.9349
H 8.43337 30.9282 30.099
Ow 27.2533 32.0528 29.9933
H 27.7919 0.769479 29.6348
H 26.8463 0.444699 30.7716
Ow 23.6715 2.7857 25.7376
H 23.4999 1.92317 26.1154
H 23.0705 3.37261 26.1965
Ow 27.521 9.66513 22.9764
H 26.8388 9.60281 23.645
H 28.307 9.32389 23.403
Ow 12.7777 15.3632 14.1461
H 11.9192 14.9826 14.3314
H 12.7443 16.2345 14.5412
Ow 4.74112 7.46923 21.6149
H 3.93968 7.23162 22.0813
H 4.76441 8.42553 21.6496
Ow 27.6501 20.0048 22.2437
H 26.8487 19.6075 21.903
H 27.3623 20.8315 22.6309
Ow 25.3723 10.0461 19.0856
H 24.8193 10.4997 18.4493
H 25.4963 10.6809 19.7913
Ow 21.9165 29.9257 21.8633
H 22.4251 29.117 21.8035
H 21.023 29.6643 21.6404
Ow 3.28558 26.6393 17.9891
H 4.0422 27.1238 18.3193
H 3.21621 25.8796 18.5672
Ow 6.11602 27.3099 27.1923
H 5.84893 27.6757 28.0355
H 7.0728 27.3155 27.2205
Ow 32.0993 21.2893 18.2274
H 0.634367 21.9568 18.6705
H 31.298 21.745 17.9697
Ow 10.4113 17.9898 19.521
H 10.7605 18.1906 18.6527
H 11.097 17.4706 19.9412
Ow 11.1682 32.1887 12.2499
H 10.8166 31.9553 13.1091
H 10.4299 32.0789 11.6507
Ow 23.9763 8.40833 12.1458
H 23.579 7.54269 12.241
H 23.3827 8.99742 12.6115
Ow 30.3097 7.34944 11.6311
H 30.5693 6.43957 11.4862
H 29.7905 7.32577 12.4349
Ow 7.93876 8.09249 4.61857
H 7.66496 8.89575 4.17539
H 7.13955 7.56973 4.68367
Ow 1.72758 18.9043 1.86078
H 2.62938 19.1386 1.64149
H 1.22432 19.7003 1.68936
Ow 15.4764 31.8362 0.603096
H 15.0236 32.2331 31.8477
H 15.8335 31.0178 32.2467
Ow 6.83749 19.5295 30.8908
H 7.21591 18.7054 31.1972
H 6.76931 20.0696 31.6779
Ow 8.82359 0.982754 21.861
H 7.88918 1.11167 21.6981
H 8.85971 0.519976 22.6981
Ow 2.58983 16.0694 3.65892
H 1.85608 16.5915 3.98334
H 2.34765 15.8475 2.75982
Ow 8.53679 11.745 15.653
H 8.38076 12.5968 15.2449
H 8.25876 11.8598 16.5616
Ow 4.80294 18.8816 8.55429
H 4.92309 19.5271 9.2508
H 4.12514 18.2932 8.88681
Ow 6.29191 29.5652 1.77346
H 5.51264 29.0141 1.84634
H 5.95055 30.4406 1.59088
Ow 12.5414 21.481 8.18764
H 12.7177 22.3692 8.49777
H 11.6723 21.2747 8.5315
Ow 26.2351 22.1149 20.1355
H 26.7818 22.4166 20.8609
H 26.8397 22.0303 19.3983
Ow 12.6807 3.18967 0.72518
H 13.4481 3.53592 32.2582
H 12.0342 3.89378 0.675578
Ow 1.59403 25.0735 3.54868
H 2.21148 24.9727 2.8242
H 0.854495 24.5131 3.31335
Ow 22.7524 21.1706 12.3925
H 23.6115 21.4774 12.1025
H 22.8654 20.9868 13.3251
Ow 16.6836 25.9102 6.86868
H 17.0161 26.773 6.62109
H 16.7118 25.4007 6.05881
Ow 13.7048 23.9578 29.9108
H 13.8972 23.0803 29.5802
H 13.7689 24.5235 29.1413
Ow 9.76726 21.8396 5.80593
H 9.93368 21.9475 6.74237
H 9.79857 20.8935 5.66402
Ow 26.2302 27.1411 30.0105
H 26.0002 27.4615 30.8827
H 26.1425 26.1902 30.0732
Ow 1.83018 19.7595 13.546
H 1.56393 19.6255 12.6365
H 2.78487 19.8189 13.5105
Ow 31.0787 1.56309 2.62875
H 30.5113 2.26887 2.93888
H 30.8263 0.803792 3.15409
Ow 16.6233 17.0777 23.3452
H 17.1934 17.7587 22.9881
H 16.9451 16.938 24.2358
Ow 3.35616 29.8427 26.7129
H 4.25212 29.8688 27.0488
H 3.158 30.7515 26.487
Ow 14.4435 26.1437 8.46656
H 15.2332 26.3713 7.97577
H 14.1887 26.9571 8.90192
Ow 5.77655 1.42526 13.7389
H 6.40058 0.826484 13.3287
H 5.99423 1.39729 14.6706
Ow 17.3414 16.5018 19.1405
H 17.6063 17.2452 18.5988
H 16.7231 16.8721 19.7704
Ow 8.547 7.52922 26.8264
H 7.59464 7.56726 26.738
H 8.84464 8.40966 26.5973
Ow 4.17013 20.7508 30.6811
H 3.98182 21.6877 30.6262
H 4.09297 20.5448 31.6127
Ow 3.76216 30.8666 15.0443
H 4.36589 30.6909 15.7661
H 4.32918 31.0847 14.3046
Ow 26.0234 26.0929 11.7943
H 25.9933 25.1811 12.0841
H 26.8451 26.1632 11.3084
Ow 7.51093 8.9109 7.15492
H 7.77562 8.7142 6.25642
H 6.55889 8.81154 7.15194
Ow 14.024 17.9564 27.0239
H 14.5814 17.1814 27.0933
H 14.2829 18.5053 27.7642
Ow 5.15236 19.0307 22.4811
H 4.46918 19.6157 22.1535
H 5.71652 19.5937 23.0112
Ow 18.6995 7.27524 26.8338
H 18.3528 8.15982 26.9504
H 19.3267 7.35603 26.1152
Ow 18.9493 10.9871 21.9876
H 19.834 10.8154 22.3101
H 19.0768 11.5571 21.2292
Ow 15.564 25.7088 12.2425
H 16.376 25.5984 11.7478
H 15.3227 24.8215 12.5088
Ow 2.51349 25.2794 6.59047
H 2.32652 24.5625 7.19654
H 3.00198 25.9148 7.11378
Ow 28.891 17.9892 17.0512
H 29.6497 18.5701 16.9956
H 28.1538 18.5293 16.7665
Ow 10.6203 4.96519 32.3174
H 10.0622 5.55386 0.836947
H 11.0079 5.52402 31.6438
Ow 2.04669 2.67656 11.3406
H 2.43863 3.39513 10.8443
H 1.10435 2.77855 11.207
Ow 19.8277 25.1444 4.0142
H 19.6822 24.531 4.73451
H 19.9465 25.9927 4.44162
Ow 18.1649 30.9275 30.4835
H 19.036 31.0993 30.8412
H 18.1227 29.9747 30.4018
Ow 30.469 13.1903 2.07455
H 31.414 13.3314 2.13079
H 30.1081 13.6862 2.80944
Ow 4.73055 32.0526 8.2493
H 5.68691 32.0085 8.25699
H 4.49176 32.2421 9.15668
Ow 1.39268 13.2132 21.1661
H 1.37953 13.108 20.2148
H 1.21819 12.3359 21.507
Ow 4.71718 10.3466 21.6403
H 5.17342 10.4534 20.8056
H 4.4433 11.2322 21.8791
Ow 27.559 15.9341 21.7319
H 28.41 16.3664 21.6609
H 26.9754 16.6085 22.0797
Ow 26.5834 3.22879 25.0051
H 25.7818 2.81252 25.3218
H 26.4761 4.1543 25.2245
Ow 28.9792 10.8604 26.9873
H 28.3736 11.2408 27.6235
H 29.3083 10.0689 27.4127
Ow 10.5788 3.80596 20.1525
H 11.2968 4.22632 19.6792
H 10.5597 4.24783 21.0014
Ow 32.2107 9.43652 31.5604
H 31.6502 9.49162 32.3344
H 1.10978 9.55719 31.8976
Ow 2.84716 9.63756 31.9166
H 3.01673 9.01251 0.632706
H 3.16807 9.20183 31.127
Ow 24.7727 11.9334 21.4464
H 25.2071 12.7751 21.3076
H 25.1483 11.6012 22.2618
Ow 2.34385 27.6419 24.7138
H 2.64343 28.4686 24.3356
H 1.43848 27.5554 24.4154
Ow 31.7571 0.572215 6.62523
H 0.52158 32.0819 6.27998
H 31.0017 32.021 6.39281
Ow 0.822042 32.3617 9.10307
H 32.3299 1.11926 9.46184
H 0.468532 32.2503 8.22063
Ow 6.8645 17.02 21.1415
H 6.40253 17.6859 21.6508
H 7.20504 17.4924 20.3817
Ow 19.9176 19.7903 13.9105
H 20.1227 19.7663 12.9758
H 19.4257 20.603 14.0274
Ow 12.1221 15.9922 24.0241
H 12.7362 15.2715 24.1647
H 12.5092 16.732 24.492
Ow 31.1097 4.4197 14.6843
H 31.9014 4.91342 14.8982
H 31.2192 4.17728 13.7648
Ow 5.90055 27.4449 9.01415
H 6.3365 27.9586 9.69398
H 6.18767 26.5455 9.17178
Ow 16.1335 13.9171 18.1633
H 16.3694 14.7953 18.4623
H 15.5093 14.0651 17.4529
Ow 24.9838 20.143 9.6319
H 25.1674 20.6572 10.4181
H 24.3428 20.6642 9.14845
Ow 1.1692 8.72756 16.4367
H 1.21852 8.43755 17.3475
H 2.01857 9.13588 16.2685
Ow 28.9594 23.2027 2.8248
H 28.6922 22.3343 3.12613
H 28.5218 23.8092 3.42224
Ow 25.5594 25.3462 2.13403
H 26.1444 25.3447 1.37636
H 26.0906 25.7017 2.84661
Ow 26.8405 1.6631 15.1219
H 26.6494 1.35906 14.2344
H 26.2174 2.37419 15.2712
Ow 13.2724 29.5891 1.19625
H 14.1296 29.1664 1.1447
H 13.4375 30.4111 1.65802
Ow 30.0302 29.9945 32.0635
H 29.8548 29.6511 0.950986
H 29.2779 29.7155 31.5415
Ow 10.8095 29.9655 18.8511
H 10.2918 29.2753 19.2655
H 11.0419 30.5548 19.5687
Ow 7.88442 16.5295 4.97746
H 8.65578 17.0523 5.19629
H 7.81138 16.5964 4.02538
Ow 1.15182 5.18977 18.5339
H 1.48557 6.04265 18.8122
H 1.19881 4.64553 19.3199
Ow 12.0541 13.7591 5.51275
H 12.8481 13.9658 5.01968
H 12.1122 12.818 5.6777
Ow 17.9099 9.54386 3.97178
H 17.9124 10.0413 3.154
H 18.8328 9.48243 4.21816
Ow 5.36968 23.2285 20.5799
H 4.62556 23.8187 20.4608
H 5.27267 22.8971 21.4727
Ow 10.0495 21.5957 24.5907
H 10.42 22.4743 24.5066
H 9.12827 21.6999 24.3526
Ow 22.8839 8.91529 27.9472
H 23.1033 9.83985 27.8319
H 22.5311 8.64477 27.0995
Ow 11.632 17.2934 2.02882
H 10.8676 17.1102 1.48263
H 11.3089 17.2186 2.92673
Ow 13.5521 12.894 29.8977
H 13.9385 13.4301 29.2051
H 13.9333 13.2356 30.7065
Ow 4.78752 20.9549 18.9099
H 5.28198 21.0697 18.0984
H 4.79083 21.821 19.3175
Ow 3.45675 10.3063 15.7044
H 4.24256 9.76222 15.7547
H 3.62095 11.0224 16.3181
Ow 3.78956 24.9931 24.4412
H 4.23275 24.3172 23.9281
H 4.20282 24.9495 25.3035
Ow 9.4074 8.80053 23.4582
H 10.0575 8.82131 24.1605
H 8.87832 9.58595 23.5976
Ow 5.74941 11.2636 12.8004
H 6.22856 11.315 11.9733
H 4.91386 10.858 12.5689
Ow 32.205 1.76646 22.1309
H 31.8587 1.00204 21.6705
H 32.0643 1.57257 23.0576
Ow 2.95162 2.1206 8.00839
H 2.22142 1.56821 8.28754
H 3.68635 1.51515 7.9092
Ow 3.9776 14.8065 10.7874
H 4.0609 14.5532 11.7068
H 4.75835 14.4456 10.3674
Ow 12.1457 27.3732 21.9439
H 12.5778 26.8865 22.6458
H 12.6229 28.2017 21.8973
Ow 18.2563 9.16872 16.1826
H 18.2752 9.6101 15.3335
H 17.513 8.56841 16.1247
Ow 2.39434 21.7672 4.8243
H 1.57721 22.2564 4.92015
H 3.06904 22.3595 5.15633
Ow 27.4948 29.7977 25.0085
H 27.3541 30.7202 25.2213
H 27.6404 29.3756 25.8551
Ow 20.9359 12.2247 29.3818
H 20.4602 11.8383 28.6465
H 20.5951 13.117 29.4458
Ow 2.2679 27.6097 4.60292
H 1.69983 28.3009 4.26252
H 2.88837 27.4383 3.89446
Ow 12.1185 18.1528 15.0333
H 12.0172 18.8534 14.389
H 11.259 18.0827 15.4487
Ow 4.6115 8.71025 2.48993
H 4.28024 8.04693 3.09534
H 5.28054 8.25546 1.97829
Ow 28.3129 4.09612 18.8214
H 28.4456 3.60927 19.6348
H 29.109 3.93749 18.3142
Ow 2.43099 19.7065 17.7108
H 2.23067 18.7721 17.655
H 3.12084 19.8432 17.0614
Ow 9.93093 7.29226 11.8018
H 9.47283 6.53057 11.4466
H 10.6573 6.92278 12.304
Ow 3.56283 26.4793 12.0399
H 3.19354 26.4484 11.1574
H 3.45736 25.5891 12.3756
Ow 31.5641 16.7386 25.7661
H 31.4725 16.351 24.8955
H 30.6672 16.8092 26.0928
Ow 19.1696 14.6072 10.1602
H 18.3881 14.5813 9.60806
H 19.6312 13.7926 9.96111
Ow 19.5189 19.4768 9.33502
H 20.0637 19.2797 10.097
H 19.9969 19.1027 8.59489
Ow 28.0237 29.5275 30.0598
H 27.8739 30.4617 29.9144
H 27.2964 29.2518 30.6178
Ow 9.92449 14.7239 28.9897
H 8.97179 14.6417 28.9466
H 10.0946 15.0929 29.8563
Ow 2.90399 19.1405 27.2591
H 2.07689 19.2353 27.7315
H 2.76822 18.3854 26.6867
Ow 29.3427 5.70326 31.2643
H 28.7642 6.46589 31.267
H 29.4574 5.49234 30.3377
Ow 7.14929 26.8272 16.1975
H 8.04722 26.6112 15.9458
H 7.20814 27.053 17.1258
Ow 16.9674 9.63555 26.5448
H 16.3203 10.1594 27.0173
H 16.4562 9.14862 25.8984
Ow 5.98399 11.8328 27.6547
H 6.5639 11.6095 28.3827
H 5.63358 10.9921 27.3603
Ow 28.013 15.1323 24.2673
H 28.4371 15.907 24.6365
H 27.633 15.4368 23.4432
Ow 9.84967 10.7867 3.09508
H 9.97185 10.839 4.04302
H 10.4062 10.0577 2.82123
Ow 21.1035 15.4345 22.5245
H 20.746 15.9195 23.2683
H 20.3393 15.2142 21.9919
Ow 10.0802 27.2344 24.5008
H 9.90672 28.0008 25.0474
H 10.7111 26.7191 25.0034
Ow 17.9169 17.4969 25.9193
H 18.7816 17.365 25.5306
H 17.693 16.6478 26.3003
Ow 14.3567 4.71716 30.9762
H 15.1777 4.23341 30.8858
H 14.6011 5.52106 31.4349
Ow 14.6117 11.5936 25.5732
H 15.0999 12.1676 26.1637
H 13.8576 11.3055 26.0875
Ow 20.4936 21.9113 30.7922
H 21.0097 22.6957 30.6059
H 20.3056 21.9648 31.7293
Ow 0.912466 29.8005 20.6583
H 0.69609 28.8936 20.8752
H 32.1245 30.2995 20.9105
Ow 13.0499 25.9701 2.949
H 13.998 25.9619 3.08023
H 12.7514 25.1321 3.30247
Ow 24.2236 27.0844 14.0097
H 25.0622 26.7384 13.7044
H 24.2687 28.0222 13.8233
Ow 3.70699 16.89 23.4662
H 4.29652 17.6264 23.303
H 3.41003 16.6231 22.5963
Ow 25.1651 29.6481 13.8107
H 26.101 29.5811 13.9997
H 24.9162 30.5139 14.1344
Ow 24.9311 27.2735 17.1028
H 24.8374 28.1382 17.5026
H 25.2799 26.7219 17.803
Ow 3.025 30.3803 18.7393
H 3.2595 30.9897 19.4392
H 3.83378 29.9021 18.5565
Ow 9.62891 18.1866 16.1855
H 9.26259 18.931 15.708
H 9.45102 17.4311 15.6253
Ow 28.3292 13.3745 30.268
H 29.0409 12.8425 30.624
H 28.0729 13.9472 30.9908
Ow 2.77852 16.6823 20.8458
H 3.2213 15.9838 20.3638
H 1.87639 16.6597 20.5266
Ow 27.1366 1.29598 11.977
H 26.6309 0.493766 11.8468
H 28.0498 1.00941 11.9603
Ow 13.831 7.2702 0.573837
H 13.4042 7.95032 1.09484
H 13.9161 7.65436 31.6899
Ow 29.1856 17.8543 23.3369
H 29.4672 18.0986 24.2185
H 28.7528 18.6376 22.9974
Ow 1.52994 26.92 9.98169
H 1.584 26.1799 9.37699
H 0.593731 27.0216 10.1533
Ow 1.33096 28.469 17.6392
H 1.94216 27.7743 17.8841
H 1.57883 28.7024 16.7446
Ow 5.58764 24.7143 26.6623
H 6.21979 24.1503 26.2164
H 6.06059 25.5327 26.8131
Ow 11.3239 23.1263 27.7964
H 11.9886 22.4773 28.0272
H 11.6204 23.4866 26.9606
Ow 6.07961 20.9195 4.74735
H 6.34546 20.5881 3.8896
H 6.70858 20.5357 5.3584
Ow 3.90906 29.8613 31.7628
H 3.18357 29.3078 32.0519
H 3.57631 30.3051 30.9827
Ow 12.9344 3.1871 3.6849
H 13.5398 3.85348 4.01006
H 12.8557 3.37059 2.74875
Ow 31.4283 0.833651 30.1266
H 30.6908 1.00103 30.7134
H 31.7187 1.70336 29.852
Ow 20.342 22.3252 8.25961
H 20.1713 21.3887 8.35984
H 20.8501 22.5609 9.03591
Ow 22.3632 24.9831 12.8534
H 23.1993 24.6281 12.5515
H 22.5827 25.8439 13.2098
Ow 16.7838 12.1228 12.8037
H 17.501 11.517 12.9906
H 16.1343 11.9427 13.4834
Ow 23.83 28.7382 25.4993
H 23.4569 28.0786 26.0841
H 23.0767 29.2477 25.2007
Ow 7.15904 24.1053 14.6542
H 6.72758 23.2517 14.6955
H 8.07147 23.924 14.8795
Ow 7.66044 18.7813 19.231
H 7.2098 18.6677 18.3942
H 8.57979 18.6008 19.035
Ow 24.0068 21.2125 6.71112
H 24.9448 21.372 6.81552
H 23.9363 20.2656 6.59044
Ow 14.0173 28.3547 9.87882
H 13.3507 28.9449 9.52728
H 14.8468 28.8011 9.70872
Ow 31.3569 30.8295 10.7204
H 31.8595 31.2423 10.0182
H 31.0525 30.0038 10.3439
Ow 21.5014 4.20222 27.2195
H 21.2916 4.77589 27.9565
H 20.9701 3.41955 27.3658
Ow 3.21461 10.1543 12.3644
H 2.53415 10.5197 12.9298
H 3.21661 9.21854 12.5653
Ow 1.14878 1.54262 18.8153
H 1.79912 1.59255 18.1147
H 0.469354 2.16541 18.5569
Ow 11.2657 3.00064 7.00408
H 11.4173 2.70291 7.90103
H 11.8756 3.729 6.8867
Ow 27.6461 12.3383 23.2156
H 28.124 12.6444 22.4449
H 27.7198 11.3845 23.1806
Ow 19.8171 14.5905 29.7658
H 19.5279 14.2594 30.6161
H 19.0087 14.7123 29.2681
Ow 21.742 12.5528 2.92296
H 20.8466 12.8484 3.08775
H 21.7319 12.2515 2.01444
Ow 17.3296 21.9286 23.7765
H 18.1488 21.9419 23.2814
H 17.4792 21.2865 24.4705
Ow 24.1127 6.8535 17.463
H 23.578 7.55053 17.8431
H 23.481 6.18762 17.1915
Ow 18.4334 18.2388 16.9466
H 18.8884 19.0797 16.9923
H 17.6533 18.4163 16.4209
Ow 1.58352 18.0347 31.0529
H 1.61602 18.1751 31.9992
H 2.44353 18.3137 30.7392
Ow 2.96472 14.314 7.13418
H 2.56084 15.0946 7.51347
H 3.86611 14.5767 6.94777
Ow 16.9289 10.898 29.0911
H 16.652 11.7465 28.745
H 16.34 10.7357 29.828
Ow 2.56857 21.6091 25.8571
H 2.37384 20.8047 26.3379
H 3.51607 21.7158 25.9414
Ow 6.52577 7.33889 9.74306
H 6.56125 6.62568 10.3805
H 5.77359 7.86543 10.0137
Ow 12.7766 4.61576 28.6342
H 13.2459 4.54349 29.4654
H 13.4665 4.69188 27.975
Ow 10.3349 10.08 31.7864
H 10.6353 10.8102 31.2456
H 9.87976 9.50023 31.1756
Ow 31.2665 26.9096 17.109
H 31.9802 27.52 17.294
H 31.3324 26.2476 17.797
Ow 6.48504 30.3851 16.4933
H 6.86213 30.2541 15.6232
H 6.30125 29.501 16.8108
Ow 4.18275 32.2321 24.8464
H 3.5632 0.937712 24.623
H 4.0932 31.5935 24.1387
Ow 13.8782 23.0944 2.84702
H 13.97 22.5684 2.05261
H 14.6439 22.8679 3.37477
Ow 29.4714 11.707 11.8766
H 28.7145 12.2408 12.1183
H 29.9475 11.5804 12.6973
Ow 2.20912 29.8291 9.79582
H 2.76319 30.0169 10.5535
H 1.9961 30.6897 9.43528
Ow 27.585 0.411231 25.8506
H 26.7699 0.637128 26.2987
H 28.2685 0.568579 26.5019
Ow 16.9651 4.05013 13.2217
H 16.7948 4.50682 14.0455
H 16.7715 3.13216 13.4117
Ow 31.4124 1.35261 24.7233
H 32.2893 1.57636 25.0353
H 31.1512 0.60329 25.2586
Ow 5.69605 16.4856 27.5617
H 6.42069 16.5185 26.9372
H 5.2231 15.684 27.3383
Ow 12.649 9.82825 23.5075
H 12.1967 10.0499 22.6935
H 12.0077 10.008 24.195
Ow 4.51284 9.66422 26.4426
H 4.86777 8.85529 26.8114
H 3.588 9.47191 26.2879
Ow 25.2684 12.3909 31.1884
H 26.1006 11.973 31.4099
H 24.6757 11.6624 31.0034
Ow 20.5814 18.5205 5.91364
H 20.4231 18.9952 5.0976
H 21.535 18.4843 5.98908
Ow 14.8495 31.2027 9.93493
H 15.1136 32.0885 10.1834
H 15.604 30.8509 9.46242
Ow 1.78037 25.8002 30.3954
H 1.93184 26.4869 31.0445
H 1.08826 26.1494 29.8339
Ow 29.6614 8.5352 24.1921
H 29.6842 8.14583 25.0662
H 30.5578 8.44958 23.8676
Ow 24.8018 14.9001 29.8101
H 24.2652 15.17 30.5554
H 25.3578 14.2014 30.1552
Ow 4.54456 23.2511 5.47245
H 4.50341 22.9518 6.38073
H 4.46843 24.2036 5.52994
Ow 21.208 7.98207 29.757
H 20.5533 8.64902 29.9638
H 21.7502 8.38123 29.0764
Ow 24.543 6.27751 31.1197
H 25.1277 6.87542 31.5854
H 24.7419 5.41496 31.484
Ow 3.03481 24.1887 27.9014
H 3.89068 24.4157 27.5376
H 3.22921 23.8344 28.7691
Ow 24.7655 32.0559 17.4054
H 25.0998 32.1219 18.2999
H 24.9032 0.938243 17.0331
Ow 7.20009 14.7001 29.1937
H 6.72219 15.1959 28.5289
H 7.2064 15.2719 29.9612
Ow 7.18876 5.82437 7.53435
H 6.90093 6.58569 8.03813
H 6.40902 5.54553 7.05424
Ow 26.2926 4.59478 22.792
H 25.3748 4.84886 22.6961
H 26.3186 4.09173 23.606
Ow 28.0507 17.4412 13.6576
H 27.5067 16.6549 13.6125
H 27.5627 18.0384 14.2246
Ow 2.65438 13.0612 15.4196
H 2.35257 12.1973 15.1389
H 2.02411 13.33 16.0879
Ow 11.2415 15.3416 11.9498
H 12.0645 15.368 12.4379
H 10.9459 14.4344 12.0266
Ow 29.5218 5.77683 6.13351
H 30.0561 5.37441 6.81821
H 30.1123 5.85735 5.38449
Ow 19.9454 16.0967 17.0276
H 19.3251 16.8212 17.1091
H 20.3778 16.0539 17.8805
Ow 8.43504 25.7477 26.1774
H 8.10595 24.8923 25.9011
H 8.89864 26.0855 25.4112
Ow 3.84871 1.66247 29.59
H 3.10937 1.22765 30.015
H 3.4773 2.46566 29.2251
Ow 11.3822 19.2481 10.6382
H 10.8075 19.784 10.0917
H 10.7877 18.7774 11.2223
Ow 1.36619 11.7583 6.81628
H 0.600802 11.3438 7.21415
H 1.01213 12.2646 6.08518
Ow 23.1279 19.767 15.0368
H 22.3642 19.5055 15.5513
H 23.4652 18.9477 14.6745
Ow 16.6102 27.4309 14.6021
H 16.3657 27.7313 15.4775
H 17.4628 27.8344 14.4393
Ow 11.3518 28.1778 13.9275
H 10.8001 28.7337 13.3772
H 10.9706 27.3037 13.8441
Ow 5.2981 27.5104 24.4378
H 5.66756 27.6652 25.3072
H 6.03515 27.1906 23.9173
Ow 18.2791 24.3745 8.65017
H 17.9147 25.1224 8.17693
H 17.5635 23.7395 8.68321
Ow 26.0126 10.1399 7.1551
H 26.7093 9.48879 7.07193
H 26.4408 10.975 6.96627
Ow 29.1795 22.9035 6.4487
H 29.4848 22.0213 6.23689
H 29.8995 23.2941 6.94406
Ow 15.1648 24.7035 15.6901
H 14.4956 25.3375 15.4322
H 15.1721 24.0605 14.981
Ow 31.8945 20.1277 20.9083
H 31.6902 20.2148 19.9772
H 31.4903 20.894 21.3154
Ow 22.6836 4.60608 6.32577
H 21.9168 4.0343 6.36075
H 23.3328 4.10697 5.83001
Ow 22.5835 23.957 29.6318
H 21.8464 24.1219 29.0439
H 22.6392 24.7442 30.1734
Ow 7.81107 2.44191 27.8967
H 8.17191 1.65141 27.4952
H 7.28479 2.8434 27.2052
Ow 13.0357 8.47922 29.7389
H 13.8403 8.38613 29.2288
H 12.5109 9.11019 29.2463
Ow 4.47688 15.5732 18.4643
H 3.56136 15.7914 18.2897
H 4.9768 16.2329 17.9834
Ow 23.425 15.2446 9.05612
H 23.3502 14.4529 9.589
H 24.317 15.5552 9.21175
Ow 21.3137 4.3767 18.8422
H 21.7161 4.68992 18.0321
H 20.6182 3.78652 18.5521
Ow 15.0354 8.33985 25.1498
H 14.4754 8.54574 25.8983
H 15.1337 7.38811 25.1781
Ow 1.97361 16.0199 28.7745
H 2.1273 16.3152 27.8771
H 1.55593 15.1641 28.6774
Ow 25.9897 1.84081 8.23113
H 25.5075 1.04775 7.99708
H 26.9097 1.57719 8.21061
Ow 13.8917 6.94944 4.74277
H 12.9593 6.93332 4.9587
H 14.0216 7.78928 4.30226
Ow 27.6169 4.30729 12.012
H 27.2055 5.1715 12.0208
H 28.2848 4.36635 11.3288
Ow 28.302 7.13601 9.56844
H 27.9395 6.94486 10.4335
H 27.5691 7.00461 8.96695
Ow 1.61556 9.14569 10.4157
H 1.73031 9.62377 9.59449
H 2.13576 9.63509 11.0531
Ow 27.3876 7.66231 6.88072
H 26.7996 7.0943 6.38291
H 28.2662 7.37972 6.62692
Ow 2.81372 19.4674 20.8568
H 2.69671 18.5647 21.153
H 1.98575 19.8986 21.0684
Ow 0.786942 28.4725 27.2733
H 32.2511 29.2667 27.1717
H 32.2594 27.9169 27.8573
Ow 0.523716 28.2925 7.83785
H 32.3164 27.6982 7.11346
H 31.7154 28.2955 8.3681
Ow 28.2371 27.8984 22.9416
H 27.4118 27.7298 23.3962
H 28.739 27.0903 23.0476
Ow 16.8128 1.91981 2.14997
H 16.8378 2.48084 1.37482
H 17.6187 2.12765 2.62273
Ow 12.544 14.4423 27.3338
H 13.4672 14.568 27.1143
H 12.3442 13.5559 27.0327
Ow 18.0238 28.1605 29.9091
H 18.1473 28.1807 28.9601
H 18.4724 27.3638 30.1925
Ow 15.4626 2.01163 10.4752
H 14.6603 2.04636 10.9961
H 16.1585 1.86358 11.1156
Ow 9.82144 14.6197 3.61369
H 9.54055 13.8009 3.20509
H 9.53216 15.3018 3.00772
Ow 7.40195 19.4636 26.6822
H 7.04864 19.9361 25.9284
H 6.67895 19.4365 27.3089
Ow 26.4739 4.35751 28.4983
H 27.4297 4.31878 28.5315
H 26.2021 3.45219 28.3472
Ow 6.86086 24.9885 8.29172
H 7.55503 24.5018 8.73663
H 6.04872 24.6178 8.63703
Ow 22.8677 25.8442 2.12222
H 22.6817 25.8337 1.18343
H 23.7788 25.5587 2.18966
Ow 8.16279 20.2919 12.2806
H 8.73367 20.8894 11.7975
H 8.52398 20.2789 13.167
Ow 23.3109 22.8704 20.9957
H 22.6849 22.2324 20.6529
H 23.5877 22.5068 21.8368
Ow 25.4954 7.55145 15.0392
H 25.6346 8.48223 14.8642
H 24.7361 7.31774 14.5052
Ow 21.1304 25.0266 7.83446
H 21.9906 24.6364 7.98905
H 21.3177 25.8501 7.3842
Ow 29.4707 29.7304 17.86
H 29.0431 29.9627 17.0357
H 30.4002 29.8967 17.7034
Ow 26.7418 20.801 0.700005
H 26.4268 21.6624 0.973985
H 26.3563 20.6689 31.8225
Ow 26.166 7.46426 21.8461
H 26.591 8.16971 21.3582
H 25.4097 7.88029 22.2597
Ow 16.9917 20.043 10.7356
H 17.5594 20.5798 11.2886
H 17.5336 19.8222 9.97817
Ow 7.545 17.0932 25.4791
H 7.6636 17.9172 25.9515
H 8.42437 16.719 25.4247
Ow 7.38764 12.3223 23.135
H 7.61345 12.0714 22.2394
H 6.86734 11.59 23.4655
Ow 11.8274 16.9862 28.1474
H 12.525 17.3337 27.5916
H 11.5323 17.7384 28.6606
Ow 3.89534 32.1437 10.9085
H 3.0701 32.2859 11.372
H 4.27586 31.3717 11.3274
Ow 25.5109 10.007 13.9347
H 25.467 9.4673 13.1454
H 25.2655 10.884 13.6397
Ow 6.43645 0.592681 1.5824
H 5.63801 1.0929 1.41346
H 6.49098 0.542798 2.53676
Ow 24.8674 3.28816 10.9521
H 25.092 3.55939 10.062
H 24.2206 2.59226 10.8349
Ow 2.24151 12.7779 9.63898
H 2.77776 13.3548 10.1829
H 1.35651 12.8694 9.99207
Ow 14.8188 21.8978 11.2238
H 15.409 21.1543 11.1014
H 13.9704 21.5009 11.4212
Ow 30.2948 10.5913 20.9985
H 30.9017 10.5775 20.2584
H 30.8088 10.946 21.7239
Ow 17.6391 6.5886 3.63616
H 17.6582 7.19936 4.37296
H 17.3673 7.12201 2.88924
Ow 6.53891 9.78372 24.5073
H 6.45402 8.9162 24.1118
H 5.76737 9.86879 25.0674
Ow 11.8408 25.9652 18.2921
H 11.8097 25.4392 17.4929
H 10.9832 25.837 18.6974
Ow 10.3111 18.9432 25.7666
H 10.7253 18.8592 26.6255
H 9.46228 19.3467 25.948
Ow 18.456 31.1731 7.91011
H 19.1402 30.6493 7.49325
H 18.5554 30.9968 8.84576
Ow 32.3513 13.7348 28.0741
H 31.5198 14.1828 28.2295
H 32.2214 12.8568 28.4325
Ow 17.3885 19.7825 31.8628
H 16.6622 20.3659 31.6431
H 17.5424 19.9315 0.807042
Ow 30.9902 17.3433 14.1869
H 31.8472 17.0757 13.8549
H 30.8509 16.7967 14.9603
Ow 31.5197 26.0733 28.6853
H 31.712 25.5447 27.9108
H 30.5991 25.8934 28.8762