LAMMPS (23 Jun 2022 - Update 1)
Reading data file ...
  orthogonal box = (0 0 0) to (32.73665 32.73665 32.73665)
  2 by 4 by 4 MPI processor grid
  reading atoms ...
  3486 atoms
  scanning bonds ...
  4 = max bonds/atom
  scanning angles ...
  6 = max angles/atom
  reading bonds ...
  2324 bonds
  reading angles ...
  1324 angles
Finding 1-2 1-3 1-4 neighbors ...
  special bond factors lj:    0        0        0       
  special bond factors coul:  0        0        0       
     4 = max # of 1-2 neighbors
     3 = max # of 1-3 neighbors
     3 = max # of 1-4 neighbors
     4 = max # of special neighbors
  special bonds CPU = 0.001 seconds
  read_data CPU = 0.020 seconds
Setting atom values ...
  1000 settings made for charge
Setting atom values ...
  2000 settings made for charge
Setting atom values ...
  108 settings made for charge
Setting atom values ...
  108 settings made for charge
Setting atom values ...
  54 settings made for charge
Setting atom values ...
  216 settings made for charge
1000 atoms in group wat
108 atoms in group Li
54 atoms in group S
  create bodies CPU = 0.001 seconds
  1162 rigid bodies with 3486 atoms
  1.4900075 = max distance from body owner to body atom
PPPM initialization ...
  extracting TIP4P info from pair style
  using 12-bit tables for long-range coulomb (../kspace.cpp:342)
  G vector (1/distance) = 0.30884801
  grid = 30 30 30
  stencil order = 5
  estimated absolute RMS force accuracy = 0.0040043444
  estimated relative force accuracy = 1.2058964e-05
  using double precision KISS FFT
  3d grid and FFT values/proc = 4950 960
Generated 0 of 15 mixed pair_coeff terms from arithmetic mixing rule
Neighbor list info ...
  update every 1 steps, delay 0 steps, check yes
  max neighbors/atom: 2000, page size: 100000
  master list distance cutoff = 12.3092
  ghost atom cutoff = 12.3092
  binsize = 6.1546, bins = 6 6 6
  1 neighbor lists, perpetual/occasional/extra = 1 0 0
  (1) pair lj/cut/tip4p/long, perpetual
      attributes: half, newton on
      pair build: half/bin/newton
      stencil: half/bin/3d
      bin: standard
Setting up Verlet run ...
  Unit style    : real
  Current step  : 0
  Time step     : 0.001
Per MPI rank memory allocation (min/avg/max) = 15.47 | 15.5 | 15.53 Mbytes
   Step        Density          Temp          Press          TotEng    
         0   1.1336932      296.41942      4039338.5      8332.0286    
      1000   1.1322873      337.18084      121740.41      8253.5573    
      2000   1.1282933      450.26638      115234.19      8028.7941    
      3000   1.1218723      622.05341      104187.35      7647.6411    
      4000   1.1132978      831.3888       89516.847      7092.0288    
      5000   1.1029334      1063.4038      75399.566      6405.5698    
      6000   1.0911635      1298.3778      60731.084      5596.6269    
      7000   1.0783954      1518.5049      46619.947      4677.983     
      8000   1.0650345      1710.3182      34327.98       3672.4218    
      9000   1.0514485      1864.0368      23525.245      2600.9365    
     10000   1.0379579      1975.2227      14562.372      1490.6414    
Loop time of 28.1114 on 32 procs for 10000 steps with 3486 atoms

Performance: 0.031 ns/day, 780.872 hours/ns, 355.728 timesteps/s
99.6% CPU use with 32 MPI tasks x no OpenMP threads

MPI task timing breakdown:
Section |  min time  |  avg time  |  max time  |%varavg| %total
---------------------------------------------------------------
Pair    | 9.4232     | 11.878     | 13.914     |  32.7 | 42.25
Bond    | 0.033709   | 0.045219   | 0.056846   |   2.5 |  0.16
Kspace  | 5.2867     | 7.2934     | 9.716      |  41.7 | 25.94
Neigh   | 0.0023719  | 0.0025527  | 0.0026908  |   0.2 |  0.01
Comm    | 1.6419     | 1.7592     | 1.8631     |   4.4 |  6.26
Output  | 0.00061123 | 0.00063883 | 0.00085413 |   0.0 |  0.00
Modify  | 6.4649     | 6.7868     | 7.0005     |   5.8 | 24.14
Other   |            | 0.3459     |            |       |  1.23

Nlocal:        108.938 ave         119 max          94 min
Histogram: 2 0 2 2 6 1 8 3 2 6
Nghost:        4089.22 ave        4150 max        4035 min
Histogram: 2 2 7 3 6 1 4 3 3 1
Neighs:          39877 ave       46496 max       32636 min
Histogram: 2 1 3 5 2 7 3 4 3 2

Total # of neighbors = 1276064
Ave neighs/atom = 366.05393
Ave special neighs/atom = 2.0929432
Neighbor list builds = 2
Dangerous builds = 0
PPPM initialization ...
  extracting TIP4P info from pair style
  using 12-bit tables for long-range coulomb (../kspace.cpp:342)
  G vector (1/distance) = 0.31137795
  grid = 32 32 32
  stencil order = 5
  estimated absolute RMS force accuracy = 0.0032739661
  estimated relative force accuracy = 9.8594516e-06
  using double precision KISS FFT
  3d grid and FFT values/proc = 5175 1024
Generated 0 of 15 mixed pair_coeff terms from arithmetic mixing rule
Setting up Verlet run ...
  Unit style    : real
  Current step  : 10000
  Time step     : 0.01
Per MPI rank memory allocation (min/avg/max) = 15.5 | 15.52 | 15.54 Mbytes
   Step        Density          Temp          Press          TotEng    
     10000   1.0379579      1975.2227      11252.435      1490.6333    
     11000   0.93603615     1610.9655     -13922.662     -7748.2416    
     12000   0.89014019     1141.9473     -13960.241     -12267.594    
     13000   0.88034597     940.03984     -12406.272     -15188.034    
     14000   0.89688304     772.88815     -9175.1796     -17305.229    
     15000   0.93267476     707.48371     -7989.3836     -18982.927    
     16000   0.98207138     644.99475     -4396.4437     -20353.221    
     17000   1.035569       616.59382     -1461.705      -21470.762    
     18000   1.0853826      579.68647      2517.7402     -22355.16     
     19000   1.1248781      555.32277      4614.4879     -23124.144    
     20000   1.1515783      534.82584      4753.1936     -23861.14     
Loop time of 26.9589 on 32 procs for 10000 steps with 3486 atoms

Performance: 0.320 ns/day, 74.886 hours/ns, 370.935 timesteps/s
99.6% CPU use with 32 MPI tasks x no OpenMP threads

MPI task timing breakdown:
Section |  min time  |  avg time  |  max time  |%varavg| %total
---------------------------------------------------------------
Pair    | 8.6056     | 10.714     | 13.093     |  33.4 | 39.74
Bond    | 0.03464    | 0.045722   | 0.055123   |   2.3 |  0.17
Kspace  | 5.4559     | 7.867      | 9.953      |  39.3 | 29.18
Neigh   | 0.019279   | 0.020084   | 0.020875   |   0.3 |  0.07
Comm    | 1.497      | 1.6316     | 1.7347     |   4.6 |  6.05
Output  | 0.00041674 | 0.0004285  | 0.00062579 |   0.0 |  0.00
Modify  | 6.3163     | 6.4881     | 6.5753     |   1.8 | 24.07
Other   |            | 0.1921     |            |       |  0.71

Nlocal:        108.938 ave         126 max          93 min
Histogram: 1 2 4 6 5 3 7 1 2 1
Nghost:        4316.94 ave        4338 max        4289 min
Histogram: 2 1 3 4 4 2 3 3 8 2
Neighs:        42583.9 ave       52067 max       35039 min
Histogram: 2 2 6 7 1 4 6 2 1 1

Total # of neighbors = 1362684
Ave neighs/atom = 390.90189
Ave special neighs/atom = 2.0929432
Neighbor list builds = 17
Dangerous builds = 0
PPPM initialization ...
  extracting TIP4P info from pair style
  using 12-bit tables for long-range coulomb (../kspace.cpp:342)
  G vector (1/distance) = 0.30922642
  grid = 30 30 30
  stencil order = 5
  estimated absolute RMS force accuracy = 0.0039424906
  estimated relative force accuracy = 1.1872693e-05
  using double precision KISS FFT
  3d grid and FFT values/proc = 4950 960
Generated 0 of 15 mixed pair_coeff terms from arithmetic mixing rule
Setting up Verlet run ...
  Unit style    : real
  Current step  : 20000
  Time step     : 0.1
Per MPI rank memory allocation (min/avg/max) = 15.47 | 15.5 | 15.53 Mbytes
   Step        Density          Temp          Press          TotEng    
     20000   1.1515783      534.82584      4171.8887     -23861.151    
     21000   1.2244769      339.6885       574.51529     -28284.705    
     22000   1.2311735      300.68247      268.84415     -29502.627    
     23000   1.2325427      301.15389      973.82699     -29950.304    
     24000   1.219304       291.8107       80.643224     -30182.79     
     25000   1.2070856      300.47195     -983.11803     -30164.497    
     26000   1.204989       299.62854     -858.76766     -30281.5      
     27000   1.2029254      295.75589     -90.411786     -30364.783    
     28000   1.2063764      302.09217      1251.4406     -30406.783    
     29000   1.203553       297.72126      371.66325     -30584.58     
     30000   1.1977132      302.36576     -886.95065     -30575.827    
Loop time of 30.2484 on 32 procs for 10000 steps with 3486 atoms

Performance: 2.856 ns/day, 8.402 hours/ns, 330.596 timesteps/s
99.6% CPU use with 32 MPI tasks x no OpenMP threads

MPI task timing breakdown:
Section |  min time  |  avg time  |  max time  |%varavg| %total
---------------------------------------------------------------
Pair    | 11.526     | 13.398     | 14.877     |  21.4 | 44.29
Bond    | 0.039755   | 0.04598    | 0.05361    |   1.8 |  0.15
Kspace  | 5.7003     | 7.1355     | 8.983      |  29.6 | 23.59
Neigh   | 0.12993    | 0.13507    | 0.14084    |   1.0 |  0.45
Comm    | 1.7636     | 1.8929     | 2          |   4.4 |  6.26
Output  | 0.00040566 | 0.00041992 | 0.00063194 |   0.0 |  0.00
Modify  | 6.9731     | 7.2829     | 7.506      |   5.5 | 24.08
Other   |            | 0.358      |            |       |  1.18

Nlocal:        108.938 ave         120 max          95 min
Histogram: 1 1 3 0 7 4 9 3 1 3
Nghost:        4459.19 ave        4487 max        4438 min
Histogram: 4 5 2 6 2 4 2 3 1 3
Neighs:        44641.8 ave       49575 max       35844 min
Histogram: 1 0 1 4 3 4 5 7 2 5

Total # of neighbors = 1428536
Ave neighs/atom = 409.79231
Ave special neighs/atom = 2.0929432
Neighbor list builds = 103
Dangerous builds = 0
PPPM initialization ...
  extracting TIP4P info from pair style
  using 12-bit tables for long-range coulomb (../kspace.cpp:342)
  G vector (1/distance) = 0.3101735
  grid = 30 30 30
  stencil order = 5
  estimated absolute RMS force accuracy = 0.0037915331
  estimated relative force accuracy = 1.1418089e-05
  using double precision KISS FFT
  3d grid and FFT values/proc = 4950 960
Generated 0 of 15 mixed pair_coeff terms from arithmetic mixing rule
Setting up Verlet run ...
  Unit style    : real
  Current step  : 30000
  Time step     : 0.2
Per MPI rank memory allocation (min/avg/max) = 15.48 | 15.51 | 15.53 Mbytes
   Step        Density          Temp          Press          TotEng    
     30000   1.1977132      302.36576      741.48187     -30575.826    
     31000   1.195943       300.13874     -42.305672     -30661.375    
     32000   1.1935256      299.33842      722.93223     -30647.741    
     33000   1.1898391      293.89446     -138.17034     -30686.9      
     34000   1.198429       298.23078     -260.71202     -30708.403    
     35000   1.2054252      294.47665      451.8813      -30789.357    
     36000   1.1992605      301.54721      573.1845      -30720.942    
     37000   1.1949362      300.71091      59.375949     -30712.133    
     38000   1.1982951      297.10825     -62.195192     -30840.64     
     39000   1.1996152      292.38276      178.4882      -30866.744    
     40000   1.2006498      302.50872     -210.23375     -30879.8      
Loop time of 30.1471 on 32 procs for 10000 steps with 3486 atoms

Performance: 5.732 ns/day, 4.187 hours/ns, 331.706 timesteps/s
99.6% CPU use with 32 MPI tasks x no OpenMP threads

MPI task timing breakdown:
Section |  min time  |  avg time  |  max time  |%varavg| %total
---------------------------------------------------------------
Pair    | 12.155     | 13.404     | 14.589     |  16.8 | 44.46
Bond    | 0.040613   | 0.045927   | 0.053852   |   1.5 |  0.15
Kspace  | 5.633      | 6.7749     | 7.9971     |  23.9 | 22.47
Neigh   | 0.30546    | 0.31708    | 0.33163    |   1.4 |  1.05
Comm    | 1.7802     | 1.9006     | 2.0035     |   4.2 |  6.30
Output  | 0.00039547 | 0.0004115  | 0.00062487 |   0.0 |  0.00
Modify  | 7.0295     | 7.3459     | 7.5743     |   5.5 | 24.37
Other   |            | 0.3581     |            |       |  1.19

Nlocal:        108.938 ave         123 max         100 min
Histogram: 6 3 2 5 6 2 6 1 0 1
Nghost:        4460.25 ave        4528 max        4417 min
Histogram: 2 3 10 4 4 3 3 2 0 1
Neighs:        44740.4 ave       51371 max       40475 min
Histogram: 3 4 5 4 9 2 1 2 1 1

Total # of neighbors = 1431692
Ave neighs/atom = 410.69765
Ave special neighs/atom = 2.0929432
Neighbor list builds = 244
Dangerous builds = 0
PPPM initialization ...
  extracting TIP4P info from pair style
  using 12-bit tables for long-range coulomb (../kspace.cpp:342)
  G vector (1/distance) = 0.31023242
  grid = 30 30 30
  stencil order = 5
  estimated absolute RMS force accuracy = 0.0037823202
  estimated relative force accuracy = 1.1390345e-05
  using double precision KISS FFT
  3d grid and FFT values/proc = 4950 960
Generated 0 of 15 mixed pair_coeff terms from arithmetic mixing rule
Setting up Verlet run ...
  Unit style    : real
  Current step  : 40000
  Time step     : 0.5
Per MPI rank memory allocation (min/avg/max) = 15.48 | 15.51 | 15.53 Mbytes
   Step        Density          Temp          Press          TotEng    
     40000   1.2006498      302.50872      1140.0238     -30879.8      
     41000   1.2029515      290.90729     -655.60514     -30977.818    
     42000   1.2121297      301.85128      203.01039     -30898.007    
     43000   1.1991032      291.85002     -1029.6505     -31070.98     
     44000   1.2137392      298.95567     -176.35314     -31030.122    
     45000   1.2100041      304.76882     -251.6416      -30939.307    
     46000   1.2178046      293.67529     -169.2496      -31060.944    
     47000   1.2204618      300.31001      1192.2021     -31042.684    
     48000   1.2104959      299.66295     -296.28137     -31016.559    
     49000   1.210868       295.02363      367.31599     -31040.674    
     50000   1.213607       298.02091      238.82479     -31015.269    
Loop time of 31.5978 on 32 procs for 10000 steps with 3486 atoms

Performance: 13.672 ns/day, 1.755 hours/ns, 316.478 timesteps/s
99.6% CPU use with 32 MPI tasks x no OpenMP threads

MPI task timing breakdown:
Section |  min time  |  avg time  |  max time  |%varavg| %total
---------------------------------------------------------------
Pair    | 12.047     | 13.605     | 15.075     |  18.8 | 43.06
Bond    | 0.040324   | 0.046163   | 0.052862   |   1.4 |  0.15
Kspace  | 5.6497     | 7.0936     | 8.6216     |  26.0 | 22.45
Neigh   | 0.84502    | 0.87643    | 0.91648    |   2.4 |  2.77
Comm    | 1.8862     | 2.0098     | 2.1161     |   4.3 |  6.36
Output  | 0.00037441 | 0.00038777 | 0.00059193 |   0.0 |  0.00
Modify  | 7.2802     | 7.5989     | 7.8309     |   5.4 | 24.05
Other   |            | 0.3671     |            |       |  1.16

Nlocal:        108.938 ave         124 max          96 min
Histogram: 1 3 5 4 3 8 3 3 1 1
Nghost:        4478.41 ave        4510 max        4437 min
Histogram: 1 1 1 4 4 7 3 7 3 1
Neighs:        45149.2 ave       50319 max       39281 min
Histogram: 1 4 2 2 4 9 2 2 2 4

Total # of neighbors = 1444774
Ave neighs/atom = 414.45037
Ave special neighs/atom = 2.0929432
Neighbor list builds = 661
Dangerous builds = 0
  create bodies CPU = 0.000 seconds
  1162 rigid bodies with 3486 atoms
  1.4902115 = max distance from body owner to body atom
PPPM initialization ...
  extracting TIP4P info from pair style
  using 12-bit tables for long-range coulomb (../kspace.cpp:342)
  G vector (1/distance) = 0.3104905
  grid = 30 30 30
  stencil order = 5
  estimated absolute RMS force accuracy = 0.0037422071
  estimated relative force accuracy = 1.1269546e-05
  using double precision KISS FFT
  3d grid and FFT values/proc = 4950 960
Generated 0 of 15 mixed pair_coeff terms from arithmetic mixing rule
Setting up Verlet run ...
  Unit style    : real
  Current step  : 0
  Time step     : 2
Per MPI rank memory allocation (min/avg/max) = 15.48 | 15.51 | 15.53 Mbytes
   Step        Density          Temp          Press          TotEng    
         0   1.213607       298.02091      4876.8417     -31015.269    
      1000   1.2151117      299.97482      197.03779     -31129.682    
      2000   1.2212448      294.57318      576.64948     -31215.81     
      3000   1.2100741      294.5864      -51.998539     -31212.37     
      4000   1.2053546      297.24779     -775.01154     -31103.921    
      5000   1.2079615      307.27258     -344.32366     -31138.157    
      6000   1.2049506      295.48056      700.37968     -31236.747    
      7000   1.210057       297.68977      20.783142     -31191.47     
      8000   1.2112639      303.85586     -959.30405     -31221.047    
      9000   1.2182411      297.55026      484.38345     -31193.566    
     10000   1.2131116      295.86753      323.80111     -31190.683    
     11000   1.2149173      297.36522     -244.28176     -31192.691    
     12000   1.2031037      297.41575     -980.40635     -31185.453    
     13000   1.2087246      294.62305     -454.78112     -31245.98     
     14000   1.2132151      297.47808     -765.28691     -31192.034    
     15000   1.2000105      299.80754     -615.08041     -31143.998    
     16000   1.2090103      291.07987     -413.39243     -31217.776    
     17000   1.2079527      287.99733     -69.102155     -31291.838    
     18000   1.2063695      290.02963     -593.61544     -31249.596    
     19000   1.2083862      303.62298      212.13021     -31084.848    
     20000   1.2116235      286.66836      226.30062     -31254.115    
     21000   1.2211924      289.28552     -279.52443     -31296.836    
     22000   1.213786       295.30539     -244.13916     -31276.634    
     23000   1.201883       290.58157     -279.67131     -31194.676    
     24000   1.214434       291.72141      401.0203      -31212.875    
     25000   1.2135655      296.84338     -725.11497     -31270.113    
     26000   1.1996334      297.60356     -643.38283     -31092.119    
     27000   1.2112369      295.19183      606.60657     -31127.365    
     28000   1.210321       299.32065      570.42956     -31140.225    
     29000   1.2142212      296.76442     -449.91221     -31274.504    
     30000   1.2176244      289.8614       603.20768     -31276.729    
     31000   1.2108989      297.1884       1024.9142     -31261.23     
     32000   1.2044566      297.9048      -416.72054     -31231.072    
     33000   1.2110433      292.26335     -12.832336     -31220.794    
     34000   1.205673       292.28658     -83.766015     -31208.139    
     35000   1.2043669      293.37686     -1163.3582     -31151.311    
     36000   1.2096559      295.00827     -391.09552     -31298.43     
     37000   1.2032447      298.05122     -226.49104     -31125.038    
     38000   1.2102958      291.14512      445.27748     -31221.476    
     39000   1.2060945      297.6123      -44.945658     -31178.419    
     40000   1.2147281      300.48568      190.90689     -31192.682    
     41000   1.2094975      303.70361     -418.2703      -31192.261    
     42000   1.2090684      298.66432      29.471664     -31201.965    
     43000   1.2124588      305.09182      619.81197     -31140.216    
     44000   1.2035466      295.87095     -826.17035     -31118.494    
     45000   1.210244       291.51454     -385.12448     -31222.934    
     46000   1.2162548      300.99946      452.89229     -31142.695    
     47000   1.2186686      298.54447      100.27182     -31109.467    
     48000   1.2148039      287.66388      147.80523     -31217.229    
     49000   1.2148432      302.19599     -600.49795     -31159.367    
     50000   1.2067774      305.29939     -251.70137     -31153.223    
     51000   1.2098805      305.22861      431.35192     -31040.123    
     52000   1.2138367      295.43777      277.07319     -31135.616    
     53000   1.213054       297.0045       997.02954     -31134.932    
     54000   1.2110078      298.634        54.774401     -31228.471    
     55000   1.2039172      293.8558       279.26828     -31100.373    
     56000   1.1956598      297.94101     -183.33803     -31192.627    
     57000   1.210265       292.96784      116.59613     -31282.686    
     58000   1.2109778      298.39182      45.481677     -31099.3      
     59000   1.2021944      304.74751     -411.94397     -31067.708    
     60000   1.2068408      295.55824      49.154808     -31249.024    
     61000   1.2149667      296.64179      678.23061     -31219.928    
     62000   1.2169669      303.00917      388.55804     -31135.982    
     63000   1.2139396      295.43571     -371.48685     -31194.38     
     64000   1.2031394      293.8975      -703.98441     -31258.884    
     65000   1.2084139      295.99037     -395.21134     -31200.156    
     66000   1.2182205      297.20009      1202.2992     -31223.742    
     67000   1.2000203      297.63216     -219.99887     -31123.742    
     68000   1.2133734      293.96623     -651.46171     -31281.142    
     69000   1.2142379      297.09707     -521.429       -31204.594    
     70000   1.2196351      298.72795      149.68742     -31151.015    
     71000   1.2144579      302.62061     -567.35674     -31087.26     
     72000   1.2171915      290.37575     -348.39297     -31219.28     
     73000   1.2259008      298.25359      1051.4682     -31159.321    
     74000   1.219669       288.79957      284.03877     -31247.857    
     75000   1.2103615      296.97568      332.10247     -31183.025    
     76000   1.2168122      291.29772      22.788601     -31225.471    
     77000   1.213542       299.41317     -665.79627     -31112.603    
     78000   1.2153558      292.91132      56.185656     -31196.867    
     79000   1.2141074      300.8542      -104.19292     -31255.818    
     80000   1.2026879      285.46415     -200.65646     -31296.918    
     81000   1.2098935      294.81712     -227.2499      -31143.263    
     82000   1.2053836      299.90202     -288.93137     -31216.858    
     83000   1.2001874      293.2674       190.74543     -31213.88     
     84000   1.2122894      294.59534      575.37477     -31233.041    
     85000   1.1978164      291.46805     -768.78188     -31209.096    
     86000   1.2089131      290.50325      362.32999     -31292.084    
     87000   1.2152775      300.23004     -576.14055     -31222.643    
     88000   1.2134022      300.45988     -214.04975     -31110.416    
     89000   1.2115931      300.0251       494.09438     -31181.7      
     90000   1.2066801      304.66112     -103.82783     -31141.68     
     91000   1.209787       293.66447      215.43351     -31256.613    
     92000   1.2100618      289.3737       515.37288     -31248.8      
     93000   1.1944641      283.11713      81.928625     -31263.153    
     94000   1.2040541      294.94039     -777.24837     -31156.045    
     95000   1.2053134      301.25933      430.18005     -31166.47     
     96000   1.2031594      299.64456     -179.66694     -31110.798    
     97000   1.2098644      287.54507     -385.05399     -31273.506    
     98000   1.222531       288.45242      262.4941      -31296.522    
     99000   1.2145054      290.112        1296.0031     -31262.308    
    100000   1.2059973      292.37631     -145.12417     -31246.251    
    101000   1.2051079      299.99573     -181.20348     -31149.313    
    102000   1.2010575      291.97124     -905.3412      -31207.866    
    103000   1.2171707      292.55557      621.35178     -31261.898    
    104000   1.2065321      292.86703     -579.37622     -31216.132    
    105000   1.2116553      292.88908      402.37043     -31258.059    
    106000   1.2041851      299.46383     -269.33418     -31095.452    
    107000   1.2150111      289.83704      420.81798     -31267.133    
    108000   1.2056303      298.26487     -631.61958     -31121.379    
    109000   1.2060399      291.14405      409.49873     -31235.151    
    110000   1.2064673      294.01618     -120.80083     -31189.674    
    111000   1.2107291      292.95884     -461.416       -31211.885    
    112000   1.2056519      304.64357     -921.66523     -31218.824    
    113000   1.2040617      297.8218      -698.97314     -31102.898    
    114000   1.2084541      295.03289     -535.85502     -31238.716    
    115000   1.2108569      301.09969     -595.24115     -31193.586    
    116000   1.2057033      288.26309     -363.87006     -31246.591    
    117000   1.2054598      298.29087      307.84283     -31106.507    
    118000   1.2017241      294.50231     -979.95274     -31190.887    
    119000   1.2147824      292.74584      521.48512     -31227.455    
    120000   1.2135751      303.45638      235.24815     -31121.363    
    121000   1.2167236      297.54628      501.27306     -31183.382    
    122000   1.2105816      298.01169      666.49163     -31168.765    
    123000   1.213318       295.16307     -456.0194      -31195.242    
    124000   1.2148564      297.81466     -124.64749     -31144.926    
    125000   1.2004682      295.42602     -264.40146     -31176.852    
    126000   1.2198214      292.884        1125.2378     -31196.651    
    127000   1.2098468      301.2983      -430.28091     -31240.405    
    128000   1.2061199      305.52862     -180.63914     -31211.843    
    129000   1.2211296      306.61461      568.09347     -31182.769    
    130000   1.2158084      299.89311     -611.99047     -31207.876    
    131000   1.2320955      296.83368      1622.2403     -31216.701    
    132000   1.2165375      297.67894      128.39827     -31196.025    
    133000   1.2284264      298.26737      99.221401     -31252.524    
    134000   1.2113604      295.88599      431.55481     -31214.006    
    135000   1.2191352      292.53816      312.64017     -31235.499    
    136000   1.2230245      293.33698     -41.221207     -31289.37     
    137000   1.2144403      298.3913      -96.224426     -31210.797    
    138000   1.2083198      294.33432     -1064.9197     -31204.145    
    139000   1.2093448      302.90111      497.60771     -31190.459    
    140000   1.214817       300.05797     -1191.133      -31250.092    
    141000   1.2104082      304.08836     -279.92248     -31146.649    
    142000   1.2072034      301.13192      140.3152      -31153.583    
    143000   1.2097638      293.45795     -699.49863     -31204.283    
    144000   1.2085891      288.46161     -223.40045     -31239.971    
    145000   1.2103355      299.91677     -888.76164     -31214.068    
    146000   1.2149242      298.16848     -518.28024     -31090.699    
    147000   1.2141713      300.29996     -293.00183     -31140.779    
    148000   1.210749       289.12517      352.81928     -31250.166    
    149000   1.2058883      307.25969      406.68694     -31141.807    
    150000   1.2097869      295.86791     -784.9557      -31172.858    
    151000   1.2262315      286.35255     -187.72385     -31254.967    
    152000   1.216508       299.74321     -1120.0667     -31132.085    
    153000   1.2052782      296.46216     -814.46191     -31144.125    
    154000   1.2186261      290.74974      1044.8867     -31157.221    
    155000   1.2121101      291.14896     -310.15083     -31225.685    
    156000   1.2092749      293.79857     -801.31        -31276.721    
    157000   1.2046157      293.16601     -578.55623     -31214.127    
    158000   1.2227934      295.12545      597.2425      -31223.615    
    159000   1.2089059      303.35239      12.042283     -31200.56     
    160000   1.2079614      284.94787     -196.21193     -31273.237    
    161000   1.2120526      296.24176     -615.30139     -31285.553    
    162000   1.2098874      295.36808      303.2919      -31238.825    
    163000   1.1996052      301.1225       144.19744     -31061.22     
    164000   1.2055068      296.89854     -663.02417     -31208.944    
    165000   1.2126872      291.51948     -681.56499     -31297.561    
    166000   1.2206781      295.70352      1005.7096     -31169.747    
    167000   1.2094659      303.05256     -190.86196     -31176.193    
    168000   1.2016662      300.34655     -58.902863     -31154.989    
    169000   1.2160593      295.81933      1082.1048     -31223.995    
    170000   1.2054598      297.98719      334.69823     -31204.756    
    171000   1.2053912      295.33095     -405.66054     -31135.093    
    172000   1.2246484      297.04865      916.68283     -31216.589    
    173000   1.2177231      291.24673     -1344.6772     -31276.828    
    174000   1.2185105      293.28832      364.27651     -31236.002    
    175000   1.2172607      295.16021     -901.30818     -31233.859    
    176000   1.223534       295.71893      662.82746     -31247.232    
    177000   1.2131606      293.84863      120.03885     -31238.134    
    178000   1.2071361      305.53982      270.83861     -31184.296    
    179000   1.2056029      296.50742      209.83942     -31203.193    
    180000   1.2051827      297.30072      458.28834     -31187.555    
    181000   1.2009336      298.81954     -277.73015     -31101.463    
    182000   1.2078661      306.37797      453.60378     -31164.137    
    183000   1.2090131      300.01169      334.43047     -31152.137    
    184000   1.2072152      302.08597     -320.04267     -31170.546    
    185000   1.2057951      298.24663      190.94956     -31144.959    
    186000   1.2168632      296.08435     -273.93347     -31206.093    
    187000   1.2177727      298.9124       152.8013      -31207.149    
    188000   1.2127572      285.79255      641.72644     -31305.879    
    189000   1.2144025      301.1597      -308.85224     -31215.484    
    190000   1.2030819      296.73286      112.97117     -31154.7      
    191000   1.1929984      295.67618     -1130.8614     -31126.953    
    192000   1.2131033      305.85951      18.784761     -31091.535    
    193000   1.216933       293.79031      208.25809     -31333.196    
    194000   1.220329       299.19845      413.9576      -31286.122    
    195000   1.2076457      302.61923      85.568087     -31107.462    
    196000   1.2184457      292.53559      1049.5365     -31245.307    
    197000   1.2067518      299.35809     -982.7845      -31234.471    
    198000   1.208864       288.93891     -760.70014     -31175.613    
    199000   1.2085335      297.79134     -360.67429     -31190.103    
    200000   1.216938       289.0012      -95.126864     -31264.389    
    201000   1.2121533      288.16296      457.40083     -31197.424    
    202000   1.2096974      296.75878     -420.55981     -31214.822    
    203000   1.2119842      294.65129      177.78185     -31268.914    
    204000   1.2160601      295.99905      774.58138     -31233.963    
    205000   1.2174852      294.86942     -436.17594     -31232.728    
    206000   1.2140175      300.73766     -295.97842     -31206.167    
    207000   1.2080085      298.50189     -256.20812     -31205.728    
    208000   1.2210286      298.75074      1174.7657     -31255.199    
    209000   1.2117392      295.84391      41.739701     -31120.59     
    210000   1.2066839      297.51529     -632.94972     -31190.635    
    211000   1.202815       297.26256      387.28545     -31150.063    
    212000   1.2047349      292.48261      1146.3887     -31244.903    
    213000   1.2039363      293.54083     -531.55048     -31176.347    
    214000   1.208969       300.98713     -42.292928     -31189.188    
    215000   1.1960187      288.53002     -559.63015     -31251.917    
    216000   1.2116618      297.56174      297.17913     -31271.839    
    217000   1.2063218      287.92275      545.81261     -31285.224    
    218000   1.210196       301.99295      980.79595     -31078.969    
    219000   1.2094273      291.83351      443.12637     -31307.075    
    220000   1.2051689      295.13426     -502.29615     -31204.457    
    221000   1.2181914      293.02644      1239.0708     -31192.245    
    222000   1.2059958      300.94707     -716.81184     -31229.213    
    223000   1.2037607      298.89791      234.21228     -31162.438    
    224000   1.2065659      291.40243     -696.2447      -31235.692    
    225000   1.2164367      294.67386      781.60057     -31131.093    
    226000   1.2168672      287.35004     -236.22029     -31227.366    
    227000   1.2110713      296.24809     -249.88766     -31168.361    
    228000   1.2151522      291.75029      132.26413     -31220.494    
    229000   1.2203214      295.55001      115.62799     -31226.856    
    230000   1.2132317      297.7836       326.98122     -31197.497    
    231000   1.2137385      289.06862      475.20171     -31223.695    
    232000   1.2117107      297.57079     -436.34397     -31146.247    
    233000   1.2074474      300.58718      73.4301       -31031.62     
    234000   1.2101372      295.41144     -71.214282     -31227.934    
    235000   1.2058834      295.37227      1017.5864     -31185.804    
    236000   1.217407       297.75566     -95.475435     -31155.648    
    237000   1.213719       300.22786     -158.07663     -31157.914    
    238000   1.2128712      291.9459       358.78249     -31313.572    
    239000   1.2155084      301.87612     -831.95986     -31213.697    
    240000   1.2135165      303.37331      779.85032     -31115.982    
    241000   1.1997578      298.18323     -8.2377333     -31182.974    
    242000   1.1962028      291.23241     -217.97462     -31127.67     
    243000   1.2071935      296.66878     -464.36885     -31159.399    
    244000   1.1957179      302.57816     -141.33281     -31115.128    
    245000   1.2130141      294.48064      7.6708038     -31197.635    
    246000   1.2077233      293.05363     -100.15689     -31138.461    
    247000   1.2215779      292.95713      457.08016     -31200.071    
    248000   1.2227705      295.40582      77.037925     -31188.87     
    249000   1.2173028      294.73435      980.39434     -31206.558    
    250000   1.2102605      287.53034     -203.73983     -31235.353    
    251000   1.2199615      298.5569      -128.95381     -31173.082    
    252000   1.2178165      299.63762      241.74078     -31096.077    
    253000   1.21597        304.021        106.81906     -31149.407    
    254000   1.2188716      293.82251     -837.82974     -31217.564    
    255000   1.2105137      287.04989     -9.410669      -31304.39     
    256000   1.2048574      298.22374      125.74493     -31131.465    
    257000   1.2134809      298.46951      461.59755     -31178.737    
    258000   1.2113805      297.152        763.41848     -31147.512    
    259000   1.2107878      291.95467      35.037306     -31255.547    
    260000   1.1921886      298.72451      72.431554     -31133.286    
    261000   1.2058876      293.86071      303.96463     -31084.346    
    262000   1.2035248      302.21326     -579.9433      -31152.438    
    263000   1.2043457      291.34972      0.87130128    -31236.314    
    264000   1.209599       301.09902     -956.80517     -31133.749    
    265000   1.1961948      292.90928     -1499.6623     -31231.953    
    266000   1.2191836      299.33584      571.83279     -31121.401    
    267000   1.2213778      292.07756      297.97811     -31152.539    
    268000   1.2170224      295.41344      96.513499     -31180.67     
    269000   1.2104935      298.95697     -117.97266     -31120.382    
    270000   1.214342       287.94481     -670.72395     -31297.959    
    271000   1.2247425      302.23474      1058.4928     -31193.356    
    272000   1.214823       295.06287      12.993558     -31182.543    
    273000   1.1994817      305.6831      -541.05197     -31139.165    
    274000   1.2152139      300.35841     -122.19262     -31137.247    
    275000   1.2199505      297.42467      532.36174     -31218.437    
    276000   1.2151219      299.09716     -449.0909      -31116.671    
    277000   1.2175155      299.7366       320.51892     -31163.204    
    278000   1.2019621      294.31438     -218.40916     -31275.352    
    279000   1.2139289      293.04837     -142.70026     -31242.143    
    280000   1.2217811      292.83688     -17.846576     -31231.273    
    281000   1.209322       297.15205     -281.55611     -31161.976    
    282000   1.2213028      293.8862       405.19181     -31208.488    
    283000   1.2240831      295.35536      439.23563     -31155.212    
    284000   1.2090958      304.48251      330.6428      -31101.366    
    285000   1.202903       292.47192      220.04066     -31154.989    
    286000   1.2123724      306.94188      608.61978     -31096.098    
    287000   1.2118635      298.36629     -929.99498     -31265.491    
    288000   1.2171544      294.65495     -119.84101     -31242.036    
    289000   1.2170602      288.34846      844.23504     -31267.068    
    290000   1.2167665      296.79246      875.31163     -31152.234    
    291000   1.2164778      291.49198     -429.66847     -31338.194    
    292000   1.2159889      297.4798      -416.16257     -31250.589    
    293000   1.2087805      307.47921     -666.74565     -31202.447    
    294000   1.2132186      292.19309      63.88346      -31311.844    
    295000   1.2064976      297.06349     -413.33022     -31166.647    
    296000   1.2120975      284.57198      66.750922     -31295.978    
    297000   1.2040834      300.94336     -1416.1337     -31062.435    
    298000   1.2149761      299.72514      1425.0698     -31164.41     
    299000   1.2114432      302.63757     -169.99322     -31207.45     
    300000   1.2178966      297.27862     -361.63019     -31248.241    
    301000   1.211537       300.66909      51.556392     -31226.79     
    302000   1.207386       293.80867     -729.46311     -31261.451    
    303000   1.2156107      296.46815      578.1972      -31211.643    
    304000   1.2112252      295.29277     -109.39951     -31202.813    
    305000   1.2171813      298.46102      509.56446     -31133.473    
    306000   1.2152862      297.11339     -339.65712     -31155.401    
    307000   1.2143667      289.67411      491.47203     -31235.201    
    308000   1.2006282      305.4007      -667.00595     -31089.129    
    309000   1.2062616      281.7925      -392.90711     -31264.885    
    310000   1.2186934      296.70886     -60.70517      -31200.437    
    311000   1.2156379      298.6705       409.06488     -31190.757    
    312000   1.2107669      304.38247     -130.06012     -31184.658    
    313000   1.1965356      295.741       -329.92        -31200.129    
    314000   1.2172725      295.79336      490.21437     -31152.821    
    315000   1.2160641      289.52574      817.3988      -31280.011    
    316000   1.2036915      297.88196     -736.37456     -31190.076    
    317000   1.2052637      303.22567     -381.7488      -31088.455    
    318000   1.2173117      294.17868      287.64017     -31301.638    
    319000   1.2167196      300.31431      365.86171     -31118.047    
    320000   1.2113911      292.20391     -305.04397     -31230.553    
    321000   1.2315446      296.70125      587.09656     -31219.715    
    322000   1.2143117      297.45728      86.259022     -31191.776    
    323000   1.2142887      290.59526      120.57245     -31239.737    
    324000   1.2127009      302.04684     -75.634208     -31169.411    
    325000   1.2126338      297.22312     -494.04405     -31184.844    
    326000   1.2158472      301.25995      43.304487     -31254.302    
    327000   1.2007562      293.2305       332.84007     -31174.416    
    328000   1.1944718      292.20474     -1175.5735     -31182.908    
    329000   1.2084263      301.12957      232.79785     -31161.732    
    330000   1.221774       300.30439      60.158493     -31224.612    
    331000   1.2227148      290.41902      351.45857     -31306.542    
    332000   1.2116119      290.80631     -31.241595     -31262.906    
    333000   1.2120671      293.78504      955.3118      -31281.595    
    334000   1.203232       293.96629     -1483.152      -31264.053    
    335000   1.2133628      303.28704      50.060615     -31194.883    
    336000   1.2196234      296.84254      123.79714     -31178.914    
    337000   1.2144837      295.30654     -126.67939     -31194.805    
    338000   1.2151677      308.36014      30.646785     -31137.648    
    339000   1.2106889      290.2841       196.04797     -31230.42     
    340000   1.2152976      300.67264      208.24284     -31202.431    
    341000   1.2081646      307.33721      258.20426     -31070.092    
    342000   1.2017722      288.98287     -817.26711     -31301.891    
    343000   1.2134408      300.27065      472.34952     -31229.409    
    344000   1.2191344      302.55653      599.0726      -31187.593    
    345000   1.2166487      303.63356     -482.64875     -31183.373    
    346000   1.2066451      303.69219     -483.64697     -31101.855    
    347000   1.2106523      296.04805      158.44113     -31168.259    
    348000   1.2112677      288.13793     -325.06729     -31284.237    
    349000   1.2217237      293.73243      549.44668     -31268.283    
    350000   1.2149697      297.62044      157.0623      -31233.378    
    351000   1.2177843      300.40976     -239.2032      -31196.229    
    352000   1.2167538      297.58616     -525.59337     -31287.653    
    353000   1.2203385      303.72909      866.51113     -31112.239    
    354000   1.213475       299.06883      38.546113     -31186.641    
    355000   1.2117957      295.17097      242.95705     -31177.416    
    356000   1.2234855      298.21003     -287.08228     -31215.286    
    357000   1.2171926      295.68942     -79.700199     -31209.764    
    358000   1.2145315      297.55046      197.02273     -31194.585    
    359000   1.2207052      295.57855      146.31273     -31218.868    
    360000   1.217485       297.48728      532.39069     -31237.803    
    361000   1.2071998      290.28511      110.66202     -31225.457    
    362000   1.213331       286.91325      478.00672     -31283.775    
    363000   1.2174926      306.30289     -791.23541     -31206.412    
    364000   1.2134659      299.31577     -426.2861      -31198.433    
    365000   1.2138846      289.31415      21.435586     -31225.129    
    366000   1.2110443      288.66751      355.35005     -31228.442    
    367000   1.2067386      297.76083      232.31353     -31133.091    
    368000   1.2212361      300.57231      601.04435     -31138.647    
    369000   1.2159976      307.79622     -473.53377     -31153.249    
    370000   1.2018944      292.20597      35.18075      -31265.96     
    371000   1.2082887      302.75295     -992.76766     -31164.111    
    372000   1.2268037      292.57842      304.62052     -31262.069    
    373000   1.2015322      307.43874     -834.39124     -31116.131    
    374000   1.2076371      288.07713     -1080.3001     -31262.899    
    375000   1.2190681      298.93495     -32.750724     -31209.152    
    376000   1.2218477      297.34297     -43.570061     -31182.321    
    377000   1.2178406      297.76891      777.81388     -31145.457    
    378000   1.2028213      297.42292     -239.5622      -31200.457    
    379000   1.2088211      302.95831     -537.89214     -31227.047    
    380000   1.2153439      295.613        66.567797     -31251.79     
    381000   1.2213098      298.61748      995.15712     -31072.417    
    382000   1.2092924      301.24925     -315.58524     -31160.795    
    383000   1.2085339      296.1256       88.924891     -31168.161    
    384000   1.2156334      290.16455     -146.77344     -31348.272    
    385000   1.2115487      295.57654      50.802737     -31210.111    
    386000   1.2095377      296.16806      172.48446     -31189.573    
    387000   1.2110038      296.29698      978.7885      -31191.384    
    388000   1.207862       288.93039     -1233.8421     -31305.712    
    389000   1.2239952      295.42591      1025.6286     -31217.261    
    390000   1.2255013      303.50643      747.53842     -31214.303    
    391000   1.2162919      297.56853      53.390489     -31185.444    
    392000   1.2205712      294.19482     -91.194741     -31222.832    
    393000   1.2094318      297.99549      188.06942     -31177.233    
    394000   1.1974119      296.19466     -391.78388     -31104.331    
    395000   1.2025474      300.16491     -33.022251     -31152.725    
    396000   1.2084464      299.78257      773.43741     -31101.798    
    397000   1.2079063      302.77135     -171.08189     -31203.122    
    398000   1.2085705      292.6287      -581.14407     -31246.235    
    399000   1.2217903      301.11246      573.84437     -31245.197    
    400000   1.2247852      304.60172      344.16239     -31169.086    
    401000   1.2073322      294.19023     -178.9434      -31175.14     
    402000   1.214788       287.89417      143.42951     -31249.728    
    403000   1.2106116      302.66511      135.67807     -31197.746    
    404000   1.2096397      297.5254      -505.38044     -31127.487    
    405000   1.2124021      295.20154      824.31657     -31170.494    
    406000   1.2043368      302.77422      24.47903      -31095.927    
    407000   1.2112143      296.74892      461.36897     -31132.658    
    408000   1.2009163      289.25765     -179.04561     -31168.969    
    409000   1.21164        298.67071      308.08933     -31140.658    
    410000   1.2127798      301.24325     -156.02701     -31216.035    
    411000   1.2196893      299.93283     -84.865778     -31274.378    
    412000   1.2074265      293.66286     -89.928136     -31134.445    
    413000   1.2185974      285.19668     -977.53645     -31304.786    
    414000   1.2241518      295.49433      460.33354     -31217.227    
    415000   1.2125302      295.51998      849.97748     -31180.993    
    416000   1.2088788      294.82744     -130.37503     -31238.826    
    417000   1.2080286      296.60773     -1080.5064     -31189.693    
    418000   1.2186951      299.64318     -345.0481      -31259.872    
    419000   1.2201728      294.71575      448.96676     -31214.026    
    420000   1.2085711      301.55606     -160.56932     -31194.655    
    421000   1.2068574      285.91424     -322.46753     -31280.368    
    422000   1.2103072      293.78321     -819.28617     -31287.876    
    423000   1.2086541      300.89088     -465.64232     -31134.651    
    424000   1.196672       287.35691     -723.37786     -31181.145    
    425000   1.2146304      298.43744      893.45462     -31080.496    
    426000   1.2199347      300.54099     -287.77683     -31193.685    
    427000   1.2137365      295.26136     -421.88521     -31276.942    
    428000   1.21758        287.09722      556.64591     -31328.249    
    429000   1.2065431      290.93111      206.89292     -31177.902    
    430000   1.2183327      291.8856       705.98317     -31223.229    
    431000   1.2033372      299.73999     -156.96922     -31154.1      
    432000   1.2160415      292.05915     -171.82065     -31340.191    
    433000   1.2140732      304.51355      465.10493     -31144.146    
    434000   1.234864       293.47264      441.791       -31242.841    
    435000   1.223092       292.36081     -310.89676     -31236.207    
    436000   1.2138823      292.65723     -197.14274     -31228.782    
    437000   1.2196074      295.9275      -438.63885     -31294.239    
    438000   1.2167282      296.57078     -691.63882     -31243.674    
    439000   1.2119653      284.78427     -554.49431     -31310.593    
    440000   1.220959       294.07728      527.45917     -31261.41     
    441000   1.2163422      297.0074       697.99482     -31205.491    
    442000   1.2186767      296.676        391.28074     -31250.743    
    443000   1.2140859      292.42047     -1031.2501     -31194.65     
    444000   1.2201523      291.6592       276.8451      -31250.234    
    445000   1.2131305      301.75549      348.02884     -31166.756    
    446000   1.2090581      301.69886     -253.73542     -31119.024    
    447000   1.2120167      297.0203      -258.93006     -31213.925    
    448000   1.2082289      300.72228      40.33825      -31097.59     
    449000   1.2137347      295.42051      281.71005     -31201.7      
    450000   1.2068795      287.44967     -656.0649      -31283.979    
    451000   1.2122967      300.22399      816.07647     -31218.512    
    452000   1.2134904      297.2102      -284.06892     -31167.231    
    453000   1.2004316      294.32924     -945.83898     -31214.387    
    454000   1.2067442      296.3787      -695.10122     -31215.257    
    455000   1.2201155      298.86498     -202.99889     -31152.703    
    456000   1.2130876      293.72186      1044.2307     -31274.97     
    457000   1.2166864      298.11011     -927.36416     -31233.467    
    458000   1.2093602      300.56695     -443.36575     -31162.303    
    459000   1.2156914      296.74083     -496.30394     -31101.034    
    460000   1.203444       287.61363     -279.03083     -31252.484    
    461000   1.212396       288.18171     -190.47879     -31218.824    
    462000   1.2100411      292.91371     -908.19195     -31232.098    
    463000   1.2144144      299.14632      269.16766     -31154.649    
    464000   1.2094689      303.43026      356.46036     -31155.393    
    465000   1.2067234      295.98758      351.45377     -31186.826    
    466000   1.2178309      297.35         641.26633     -31215.612    
    467000   1.2171479      307.91898      22.687403     -31156.944    
    468000   1.2100073      295.80079     -131.64017     -31126.565    
    469000   1.2038721      297.08467     -276.99756     -31158.12     
    470000   1.1976681      295.66976     -446.44603     -31134.134    
    471000   1.2076825      300.23567      94.49837      -31112.919    
    472000   1.2138705      306.84011     -36.803769     -31122.543    
    473000   1.2100064      291.94724      306.13816     -31181.608    
    474000   1.2114154      294.2231      -25.741655     -31238.543    
    475000   1.2136803      296.5343       544.4034      -31166.438    
    476000   1.2142505      300.3896      -578.66973     -31084.949    
    477000   1.2104438      298.23285      86.377206     -31172.616    
    478000   1.2183155      298.93163      192.11474     -31092.79     
    479000   1.2280199      306.22763      15.28269      -31140.797    
    480000   1.2227669      299.05502      33.999568     -31262.392    
    481000   1.2194793      297.37684      496.08603     -31218.649    
    482000   1.2136143      291.38766     -892.00218     -31276.279    
    483000   1.2204792      298.57219      92.798746     -31234.792    
    484000   1.2214352      299.89666      29.074        -31202.992    
    485000   1.2248394      289.56961      441.51821     -31328.26     
    486000   1.2077006      289.16192      146.47101     -31229.331    
    487000   1.2155741      292.4711      -689.93706     -31213.326    
    488000   1.2040355      301.81132     -463.75005     -31117.113    
    489000   1.2107528      293.67927     -494.40763     -31160.936    
    490000   1.2188953      298.02147      738.06283     -31189.445    
    491000   1.201271       291.67718     -900.66772     -31270.562    
    492000   1.2091142      293.13577      121.03889     -31204.431    
    493000   1.2080095      303.92158      731.18372     -31142.065    
    494000   1.2053213      295.93145     -831.93585     -31198.819    
    495000   1.2113383      302.85791      692.85361     -31055.771    
    496000   1.2119575      299.9763      -414.06954     -31044.076    
    497000   1.2012639      300.12674      421.00485     -31152.341    
    498000   1.2140486      283.58511     -194.3803      -31188.963    
    499000   1.2215203      298.93102      279.66533     -31158.398    
    500000   1.2170972      293.83408     -185.21883     -31281.626    
    501000   1.2209229      296.82398     -49.422585     -31188.229    
    502000   1.2180381      287.41004      305.51306     -31322.527    
    503000   1.2079804      296.97237     -454.94007     -31239.162    
    504000   1.2106796      302.45042     -556.78058     -31172.536    
    505000   1.2117249      288.3008       502.66641     -31216.583    
    506000   1.2063289      296.22027     -722.98022     -31245.599    
    507000   1.2038609      299.78001     -732.6901      -31198.792    
    508000   1.2048021      298.92115     -424.00183     -31227.328    
    509000   1.2200886      284.80396      200.11933     -31266.351    
    510000   1.2127115      292.37911      432.05734     -31241.561    
    511000   1.203071       298.18032     -420.67508     -31221.379    
    512000   1.2067213      284.96572     -948.31448     -31298.853    
    513000   1.2216325      292.84473      546.97778     -31171.145    
    514000   1.2083125      284.84799      362.11598     -31305.85     
    515000   1.2109193      301.18153      756.58012     -31149.236    
    516000   1.2038267      295.43973     -833.96525     -31272.283    
    517000   1.2107422      298.59602      130.71158     -31204.835    
    518000   1.2130307      298.22566     -270.39161     -31203.838    
    519000   1.2097561      296.05123     -28.591818     -31183.895    
    520000   1.2206378      284.07673      270.98847     -31280.706    
    521000   1.2219051      294.68654      667.31929     -31198.627    
    522000   1.2249214      295.34472      271.474       -31130.407    
    523000   1.2237462      280.56457     -205.97463     -31285.746    
    524000   1.2198607      296.74966     -229.8237      -31265.87     
    525000   1.2157637      292.88002     -53.411057     -31262.922    
    526000   1.2154782      305.91423     -127.39757     -31159.743    
    527000   1.2260022      302.30189      275.43024     -31221.139    
    528000   1.2126693      291.31823     -369.71011     -31202.349    
    529000   1.2147601      298.62178      805.9595      -31229.923    
    530000   1.2094776      294.86379      860.29053     -31229.796    
    531000   1.2130744      301.07105     -352.4088      -31208.455    
    532000   1.2025706      295.7522      -710.01377     -31178.128    
    533000   1.2195619      302.84906      1289.558      -31193.048    
    534000   1.215299       300.41962      155.69024     -31207.495    
    535000   1.2192926      300.64697      959.64098     -31138.215    
    536000   1.2189234      298.21892      424.22011     -31177.022    
    537000   1.205548       304.20491     -643.58176     -31083.662    
    538000   1.1989962      290.58695     -458.16334     -31220.188    
    539000   1.2071921      285.44776      283.13423     -31319.881    
    540000   1.2133824      300.86299      573.38179     -31163.176    
    541000   1.2215616      293.0205      -302.75143     -31215.246    
    542000   1.2274607      298.53808      841.03277     -31151.092    
    543000   1.2136304      298.47371      140.17809     -31080.446    
    544000   1.2094166      290.43666      341.74283     -31195.913    
    545000   1.2074178      297.29988      511.09486     -31190.039    
    546000   1.2155332      297.85704      884.15645     -31164.574    
    547000   1.2122559      300.64108      138.3725      -31202.051    
    548000   1.2154456      297.35573      58.998007     -31241.311    
    549000   1.2136815      283.71505     -209.61174     -31294.826    
    550000   1.2236772      295.97954      632.7548      -31311.215    
    551000   1.2189493      289.43151     -632.92746     -31325.036    
    552000   1.2183605      297.66754      488.44138     -31232.659    
    553000   1.2181919      290.83306     -273.21749     -31268.055    
    554000   1.2178361      299.33141     -361.66646     -31270.513    
    555000   1.2309868      290.20016      447.14389     -31310.147    
    556000   1.2260988      289.92769      498.19176     -31309.657    
    557000   1.2132412      290.38381      173.34415     -31243.394    
    558000   1.2172448      298.39113      362.39377     -31241.07     
    559000   1.2088933      298.94564     -357.84814     -31163.838    
    560000   1.2186749      300.28526      671.53488     -31248.304    
    561000   1.206294       290.08266      892.93391     -31210.311    
    562000   1.2010641      301.86312     -152.02823     -31131.333    
    563000   1.2113345      294.26897     -575.12247     -31220.531    
    564000   1.2091663      291.35953      780.11979     -31185.83     
    565000   1.2193717      299.86908      856.68228     -31174.414    
    566000   1.2158735      300.81206     -66.99711      -31202.302    
    567000   1.2064884      292.81386     -651.03943     -31174.981    
    568000   1.2103053      294.30802      369.76069     -31219.336    
    569000   1.2079426      304.69834      122.94368     -31182.106    
    570000   1.2107774      300.43445     -27.717673     -31224.339    
    571000   1.2148023      297.93151     -535.29736     -31269.827    
    572000   1.2202948      296.86424      362.58682     -31260.953    
    573000   1.2144534      295.35254      110.33435     -31188.311    
    574000   1.2182169      298.26749     -111.11244     -31224.512    
    575000   1.2129329      296.88342      70.215503     -31201.722    
    576000   1.2290091      291.50139      595.53028     -31218.172    
    577000   1.2131632      293.40592     -59.682814     -31161.196    
    578000   1.2004077      294.23653     -1089.0718     -31218.737    
    579000   1.2191696      300.14223      478.48488     -31172.446    
    580000   1.2146717      300.12172      799.42795     -31179.134    
    581000   1.2144374      304.15545     -545.46394     -31180.994    
    582000   1.2183043      302.28687      996.84358     -31220.963    
    583000   1.2117311      293.31657     -851.29371     -31165.282    
    584000   1.2121722      289.53154     -148.72498     -31181.612    
    585000   1.2047022      297.61059     -141.02321     -31149.828    
    586000   1.2164958      299.37801      81.869149     -31165.322    
    587000   1.2214823      300.49626     -205.74089     -31146.16     
    588000   1.2171132      303.68612     -269.45736     -31152.731    
    589000   1.2214921      296.6068       136.53133     -31193.949    
    590000   1.2170495      297.03496      122.11519     -31249.057    
    591000   1.2098403      299.89735     -41.302934     -31169.186    
    592000   1.1961532      295.79147      173.90599     -31188.841    
    593000   1.2051281      296.35022      31.807258     -31265.987    
    594000   1.1994534      295.96497     -722.27555     -31212.466    
    595000   1.2115036      300.60013     -759.3229      -31124.078    
    596000   1.2141494      293.85852      183.26132     -31150.766    
    597000   1.2112505      307.68769      246.01287     -31074.644    
    598000   1.207447       300.64535      304.38344     -31134.14     
    599000   1.2155268      296.90567      284.99811     -31218.547    
    600000   1.2303127      291.21632      1488.4815     -31272.421    
    601000   1.2111191      289.78004     -211.14371     -31160.898    
    602000   1.206953       298.18431     -455.88149     -31165.549    
    603000   1.2131219      304.18289     -12.017933     -31227.112    
    604000   1.2151211      298.0876      -310.63331     -31215.921    
    605000   1.2154856      298.70473     -101.90336     -31120.266    
    606000   1.2120568      303.0727       358.93512     -31168.116    
    607000   1.2055452      294.69208     -752.40046     -31176.379    
    608000   1.2108444      287.99813     -258.19668     -31245.175    
    609000   1.2100059      304.26291      126.38853     -31184.896    
    610000   1.2021002      298.33631      280.26868     -31142.689    
    611000   1.2023868      294.25036     -400.97608     -31195.746    
    612000   1.2194403      304.13952     -165.25649     -31146.637    
    613000   1.2224992      308.14477     -210.50176     -31149.908    
    614000   1.2188169      305.89569     -373.53691     -31124.348    
    615000   1.2123582      288.02388     -490.47833     -31298.374    
    616000   1.2143676      294.93812      218.74273     -31297.93     
    617000   1.2230935      284.29102      277.36916     -31371.355    
    618000   1.2137576      302.37871      72.353214     -31085.575    
    619000   1.2127813      296.72253      34.319163     -31260.805    
    620000   1.2034381      295.20276      112.86265     -31192.569    
    621000   1.2176064      294.25423      704.05908     -31209.745    
    622000   1.2199601      293.33067      117.49044     -31234.103    
    623000   1.2181814      293.73714      1229.7349     -31185.84     
    624000   1.2120581      295.10334      537.98544     -31152.821    
    625000   1.2060908      303.99286     -286.52781     -31132.901    
    626000   1.2235417      287.46755      893.94672     -31255.332    
    627000   1.2176471      298.44974      377.14959     -31194.542    
    628000   1.2168363      301.20597     -451.27972     -31116.375    
    629000   1.2207169      286.42645      2.9298108     -31219.251    
    630000   1.2208897      291.89439     -388.80842     -31302.086    
    631000   1.2195885      288.72655     -685.77958     -31260.955    
    632000   1.2090171      289.68272      337.60442     -31206.375    
    633000   1.2088014      298.64605     -349.75346     -31180.172    
    634000   1.2153105      288.13771     -175.81948     -31346.75     
    635000   1.2198151      296.86747      999.84729     -31210.706    
    636000   1.2215321      290.52848      35.138353     -31256.666    
    637000   1.2149856      290.27651      87.291276     -31274.465    
    638000   1.216358       303.84318      440.55917     -31085.523    
    639000   1.2197173      297.59717      167.03317     -31151.658    
    640000   1.2230898      295.55038      244.67037     -31173.163    
    641000   1.2156917      301.92768      149.28026     -31158.407    
    642000   1.2113858      288.80673      36.303909     -31275.786    
    643000   1.209047       299.6154      -270.36073     -31219.064    
    644000   1.2047844      297.20667     -312.25601     -31111.096    
    645000   1.207642       303.84658      529.19316     -31090.285    
    646000   1.2114778      294.31185      72.72353      -31256.422    
    647000   1.207756       293.47237      20.285053     -31185.802    
    648000   1.2171819      286.51571      364.80272     -31390.739    
    649000   1.2122383      296.33503      73.845059     -31264.259    
    650000   1.2149085      290.52779      407.86016     -31332.359    
    651000   1.2154781      294.60363      61.973268     -31214.542    
    652000   1.2196234      295.59543      627.49691     -31298.8      
    653000   1.2212965      289.5808       285.71228     -31241.608    
    654000   1.2237066      299.20299      618.45764     -31269.463    
    655000   1.2066538      294.52042     -1118.9325     -31200.245    
    656000   1.2031148      298.19543     -430.95808     -31118.843    
    657000   1.2098274      294.34014      571.20631     -31211.886    
    658000   1.2183598      287.11539      289.91187     -31327.37     
    659000   1.2026526      296.4939      -324.8591      -31140.767    
    660000   1.217363       299.4714       866.03586     -31217.143    
    661000   1.2123453      296.61088     -87.467423     -31148.002    
    662000   1.2048248      299.39401     -1145.8673     -31178.598    
    663000   1.2168236      304.287        191.95762     -31100.933    
    664000   1.2177949      300.73251     -104.21366     -31250.386    
    665000   1.2123943      298.42048     -279.66613     -31197.339    
    666000   1.20818        300.08568      2.0086981     -31170.759    
    667000   1.2113389      284.14355      1641.1724     -31307.522    
    668000   1.2138134      298.59147     -37.568456     -31244.291    
    669000   1.2080029      290.78521      505.67455     -31230.943    
    670000   1.2095602      297.67262     -322.75113     -31188.51     
    671000   1.2091734      298.03543      126.60201     -31242.501    
    672000   1.1983086      287.8773      -853.45324     -31254.402    
    673000   1.213169       302.07363      61.298951     -31211.064    
    674000   1.2107307      301.34075     -287.62941     -31210.933    
    675000   1.2123648      295.0683      -1356.4729     -31264.949    
    676000   1.2075493      295.33908      81.839375     -31198.834    
    677000   1.2148134      283.28673     -47.46828      -31326.874    
    678000   1.2079007      287.07189     -618.338       -31358.974    
    679000   1.2128756      295.57713     -174.50267     -31262.789    
    680000   1.2050872      302.26392     -389.95405     -31186.304    
    681000   1.2108703      295.40215      170.1869      -31318.843    
    682000   1.2192868      301.82383     -172.99777     -31198.817    
    683000   1.2088169      286.52876     -75.328791     -31251.384    
    684000   1.2179442      297.26053     -347.95433     -31200.792    
    685000   1.2146981      304.8891      -1559.2948     -31159.84     
    686000   1.2064926      297.22462      122.14629     -31164.59     
    687000   1.207007       294.97857     -91.592905     -31209.357    
    688000   1.2095122      299.30594     -276.16095     -31262.391    
    689000   1.2261079      303.74921      886.03998     -31240.572    
    690000   1.2172756      296.60781     -117.57699     -31253.99     
    691000   1.2060832      296.40436     -491.12261     -31181.597    
    692000   1.2147072      297.86734      109.7975      -31246.887    
    693000   1.2135278      304.05817      95.657473     -31182.54     
    694000   1.1996802      294.18641     -791.19339     -31147.458    
    695000   1.2094624      289.57203     -458.02204     -31195.539    
    696000   1.2099256      292.54123      932.85014     -31224.283    
    697000   1.2184641      295.46994      419.05482     -31209.893    
    698000   1.2109062      296.84564     -816.38145     -31243.045    
    699000   1.2168216      295.92036     -174.08282     -31205.247    
    700000   1.2307169      297.72766      1016.8206     -31196.811    
    701000   1.2205196      286.59919     -69.593267     -31388.313    
    702000   1.2140741      302.16519      546.9939      -31175.414    
    703000   1.2130294      301.34395      336.25359     -31156.751    
    704000   1.2087846      295.74186      57.527208     -31146.773    
    705000   1.2183221      289.88075      403.83243     -31201.79     
    706000   1.2141223      303.09562     -73.372312     -31225.693    
    707000   1.2139999      296.85552      130.21671     -31220.627    
    708000   1.2104725      294.00718      147.61514     -31167.3      
    709000   1.2045912      298.90191      464.66153     -31176.26     
    710000   1.2193307      289.09216      718.17108     -31363.445    
    711000   1.2097379      300.26234     -274.58619     -31178.607    
    712000   1.2081765      296.35049     -246.35471     -31283.244    
    713000   1.2192705      290.8444      -136.03665     -31339.547    
    714000   1.2109274      295.33759     -254.76048     -31262.149    
    715000   1.2068546      292.94965     -404.36866     -31221.462    
    716000   1.2214314      289.32537      169.54424     -31359.072    
    717000   1.215854       293.84821     -456.21135     -31296.717    
    718000   1.2199262      291.23153     -681.86412     -31295.943    
    719000   1.208239       293.11399     -731.83326     -31239.637    
    720000   1.1959759      296.93931     -440.93128     -31171.147    
    721000   1.2115776      294.12172      216.79825     -31156.201    
    722000   1.2067768      293.64262     -1122.2431     -31137.081    
    723000   1.199442       289.24822     -1292.6923     -31208.263    
    724000   1.2155892      289.80114      305.22404     -31274.778    
    725000   1.212667       298.27159      465.58904     -31153.569    
    726000   1.2113135      298.99228      544.63648     -31168.314    
    727000   1.2106643      296.43873      1440.5853     -31200.374    
    728000   1.2029618      300.48543     -215.59918     -31176.249    
    729000   1.2056879      290.7052      -18.112839     -31154.731    
    730000   1.213814       290.07256      547.11855     -31211.938    
    731000   1.2150433      290.61825      312.79016     -31278.011    
    732000   1.2126632      299.28804     -203.37137     -31214.528    
    733000   1.2225611      294.51017      1000.101      -31226.097    
    734000   1.2141154      295.89072     -126.247       -31245.631    
    735000   1.2274135      304.67794      902.37228     -31171.982    
    736000   1.2315902      285.26268      511.3981      -31326.299    
    737000   1.2162738      297.71763     -136.94114     -31205.787    
    738000   1.2099565      305.08912      335.44293     -31080.882    
    739000   1.217126       302.19377      213.96871     -31154.438    
    740000   1.225781       287.84305      356.82705     -31249.425    
    741000   1.2127271      286.50479      126.4367      -31267.892    
    742000   1.2038628      295.85907     -291.30802     -31182.447    
    743000   1.2102625      303.56349      712.88021     -31192.864    
    744000   1.2024613      296.52227     -449.07902     -31182.711    
    745000   1.2119024      287.58689     -283.08008     -31258.881    
    746000   1.2061016      297.58503     -124.56199     -31249.683    
    747000   1.2027404      296.88349     -1131.6302     -31281.696    
    748000   1.207796       291.9476       972.68276     -31162.394    
    749000   1.2208537      304.24528      820.56116     -31122.291    
    750000   1.2096816      292.8952      -322.88453     -31262.583    
    751000   1.2118612      298.97679     -718.75805     -31141.413    
    752000   1.2094738      298.2336       171.94737     -31209.997    
    753000   1.2144518      301.34584     -236.08093     -31196.897    
    754000   1.2090413      294.23716     -491.79174     -31260.953    
    755000   1.2145514      304.65439     -547.83523     -31174.851    
    756000   1.2202521      288.75765      249.38355     -31344.188    
    757000   1.2083721      297.20976     -599.82967     -31185.857    
    758000   1.2025783      296.94197     -764.9134      -31196.286    
    759000   1.2082148      297.77563      0.35373629    -31263.691    
    760000   1.211377       299.79514     -995.56935     -31139.909    
    761000   1.2215142      292.82616      526.44405     -31259.267    
    762000   1.2103335      298.13164     -771.24352     -31207.894    
    763000   1.2213403      304.77007      523.36859     -31233.354    
    764000   1.2114471      299.57458      83.667717     -31080.744    
    765000   1.2181218      294.75085     -452.69907     -31301.344    
    766000   1.2195468      291.53321     -67.819483     -31273.153    
    767000   1.2046356      306.59879      412.27491     -31109.455    
    768000   1.2058698      303.84528     -174.6601      -31124.658    
    769000   1.2199558      293.1725      -298.66187     -31350.922    
    770000   1.2157744      296.92921     -250.32387     -31274.354    
    771000   1.217084       288.68004      980.0554      -31280.806    
    772000   1.2143014      307.27995     -537.06194     -31154.82     
    773000   1.2125446      285.87306      155.67102     -31292.959    
    774000   1.2123295      298.31659     -942.89243     -31277.732    
    775000   1.2178901      294.24897     -26.512877     -31263.47     
    776000   1.2176218      298.65841      387.1503      -31157.534    
    777000   1.2163524      301.56721     -905.12413     -31210.762    
    778000   1.2229858      301.92571      238.26592     -31207.944    
    779000   1.2162868      304.91258     -556.37217     -31160.01     
    780000   1.2147002      298.0203      -987.27674     -31172.659    
    781000   1.2124898      298.96272      561.42099     -31135.143    
    782000   1.2081259      297.16863     -378.58391     -31200.923    
    783000   1.2195168      305.74152     -140.44176     -31047.002    
    784000   1.2163609      293.82894     -218.82414     -31251.738    
    785000   1.2137584      293.1557      -597.43358     -31257.949    
    786000   1.2143906      298.00336      212.91672     -31190.108    
    787000   1.210407       292.80922      305.96564     -31215.358    
    788000   1.2006111      290.40923     -1421.3731     -31286.408    
    789000   1.2170094      299.086        523.84871     -31129.847    
    790000   1.2206515      294.20781      1433.4913     -31338.276    
    791000   1.2175498      294.25434     -112.45104     -31276.146    
    792000   1.1991105      292.6941      -268.38481     -31223.535    
    793000   1.2162217      293.54706      220.27621     -31262.586    
    794000   1.2152823      300.79131     -269.18309     -31158.043    
    795000   1.2077536      309.81695     -147.72415     -31060.3      
    796000   1.2032592      299.89155      226.53953     -31099.504    
    797000   1.2119777      291.11276      127.43961     -31299.777    
    798000   1.2220477      293.5598       214.07719     -31307.08     
    799000   1.215306       292.69687      459.54375     -31284.13     
    800000   1.2351038      296.21931      146.68207     -31246.214    
    801000   1.2250848      290.14713      1.7597285     -31263.239    
    802000   1.2134108      299.65992     -309.46775     -31213.829    
    803000   1.2140931      300.49449     -654.23345     -31141.976    
    804000   1.2103166      302.20527     -1236.7758     -31167.474    
    805000   1.213387       298.12409      168.62462     -31159.077    
    806000   1.2235445      292.15226      321.38687     -31213.718    
    807000   1.2084446      291.16112      134.59325     -31250.752    
    808000   1.2151542      289.2741      -50.910933     -31290.388    
    809000   1.2196805      296.33043      205.72964     -31202.912    
    810000   1.2131481      301.07158     -1175.8575     -31172.088    
    811000   1.2100681      293.51203     -320.61966     -31172.616    
    812000   1.2085031      294.1809      -248.79505     -31223.55     
    813000   1.2010853      305.95431     -797.63196     -31188.332    
    814000   1.2061157      284.32677     -254.69006     -31303.305    
    815000   1.206258       299.19596     -608.49974     -31216.65     
    816000   1.2151929      301.4515      -320.76294     -31239.022    
    817000   1.2073046      293.37003      741.13594     -31270.907    
    818000   1.2150444      295.8583      -386.07978     -31274.098    
    819000   1.2126412      283.61764     -178.19918     -31246.487    
    820000   1.224069       300.29159      120.06663     -31114.71     
    821000   1.2176552      292.4054       596.69236     -31183.961    
    822000   1.2083556      303.1995       197.52532     -31112.033    
    823000   1.2109395      293.54302      52.459175     -31283.812    
    824000   1.2139191      295.15453      661.25869     -31165.412    
    825000   1.2010702      295.48816     -1287.2963     -31209.888    
    826000   1.2125596      294.83018     -191.72707     -31173.628    
    827000   1.2212354      294.47568      366.3463      -31282.342    
    828000   1.2142829      287.74784     -348.73374     -31215.866    
    829000   1.2169034      294.75152      928.18659     -31240.304    
    830000   1.2140326      291.59671     -254.61167     -31288.112    
    831000   1.2147743      301.61476      180.36002     -31183.087    
    832000   1.2114431      296.76035      124.42712     -31189.605    
    833000   1.2185256      290.56603      507.15604     -31118.162    
    834000   1.2177114      299.68098      716.84847     -31129.043    
    835000   1.1991405      287.1228      -1467.4762     -31139.844    
    836000   1.1998961      300.9402      -1257.9176     -31130.404    
    837000   1.2132472      295.37938      328.25102     -31213.438    
    838000   1.206515       297.13333      257.71913     -31185.834    
    839000   1.2092501      299.30716     -750.80507     -31299.502    
    840000   1.2059585      297.71033     -830.06606     -31220.919    
    841000   1.2183735      295.20504     -477.3925      -31209.342    
    842000   1.212326       290.70728      59.196205     -31205.078    
    843000   1.2052638      288.11811     -80.673772     -31274.109    
    844000   1.209575       304.29379     -639.80721     -31159.376    
    845000   1.2042339      297.32854     -15.771563     -31188.586    
    846000   1.2197909      302.1007       1028.7507     -31170.783    
    847000   1.2106076      303.19188     -39.473638     -31218.648    
    848000   1.2108123      298.39451      564.2381      -31141.051    
    849000   1.2192865      300.28266      146.85993     -31257.991    
    850000   1.2177129      295.09967     -40.069371     -31214.754    
    851000   1.2212871      292.30922      340.1987      -31245.266    
    852000   1.2160253      289.00641     -174.01978     -31257.582    
    853000   1.212633       305.3156       1024.0619     -31126.153    
    854000   1.2028842      298.0973       41.288639     -31192.518    
    855000   1.2142327      294.15656     -418.71182     -31284.229    
    856000   1.2052699      290.45306      28.77372      -31258.078    
    857000   1.206527       297.75793      100.39914     -31177.155    
    858000   1.2099105      294.97709     -57.496359     -31095.361    
    859000   1.2132259      301.18727     -774.81082     -31165.541    
    860000   1.2087486      288.99913      109.51028     -31299.695    
    861000   1.2083019      296.99771      255.59034     -31218.259    
    862000   1.2012644      306.80006     -353.42895     -31157.641    
    863000   1.2070203      292.96121     -623.09847     -31301.287    
    864000   1.2231763      298.73895      286.81205     -31210.059    
    865000   1.2177093      297.98768      633.13177     -31144.394    
    866000   1.2072541      301.44422     -722.13727     -31158.797    
    867000   1.2197963      296.59183      929.1321      -31288.714    
    868000   1.2105631      302.45128     -363.49644     -31195.791    
    869000   1.2046865      296.35352     -928.76464     -31249.635    
    870000   1.2073815      289.6851      -426.22191     -31301.269    
    871000   1.213972       299.28873      620.1832      -31241.109    
    872000   1.2179834      300.07702     -497.15654     -31147.819    
    873000   1.2181572      305.45235      87.920389     -31232.703    
    874000   1.2141138      301.26041     -175.87871     -31102.871    
    875000   1.2085365      299.59124     -219.0429      -31242.755    
    876000   1.218799       292.37401      1638.6074     -31285.99     
    877000   1.2203694      291.56608     -181.07831     -31300.491    
    878000   1.2177689      302.64086      1248.4273     -31217.428    
    879000   1.2138733      293.54293     -211.26836     -31151.773    
    880000   1.1995672      290.51072     -1040.9608     -31207.237    
    881000   1.2133182      294.42213     -405.37576     -31206.115    
    882000   1.2181754      294.08438      1052.5258     -31231.043    
    883000   1.2140807      288.5987      -85.874189     -31175.523    
    884000   1.2205424      289.03434     -188.98462     -31368.567    
    885000   1.2155032      299.6926      -778.12125     -31206.53     
[...]
  10291000   1.2121114      296.62827     -403.39024     -31274.608    
  10292000   1.2121114      298.32548      621.68545     -31239.253    
  10293000   1.2121114      300.94659      284.77875     -31191.24     
  10294000   1.2121114      296.17456      551.54899     -31180.912    
  10295000   1.2121114      300.70119     -587.86154     -31199.801    
  10296000   1.2121114      304.86711      548.00206     -31215.858    
  10297000   1.2121114      295.54309      891.80071     -31264.868    
  10298000   1.2121114      296.95111     -392.78335     -31267.813    
  10299000   1.2121114      302.71619      321.66689     -31215.184    
  10300000   1.2121114      301.78011     -1408.2831     -31210.336    
  10301000   1.2121114      295.8361       394.04805     -31204.142    
  10302000   1.2121114      290.46527     -219.79145     -31249.61     
  10303000   1.2121114      297.63206     -558.79522     -31261.993    
  10304000   1.2121114      295.0873      -712.50719     -31234.972    
  10305000   1.2121114      303.51624     -256.1825      -31095.535    
  10306000   1.2121114      288.78791      2.2902661     -31216.985    
  10307000   1.2121114      299.42795     -422.49234     -31179.134    
  10308000   1.2121114      300.53878      647.39507     -31150.606    
  10309000   1.2121114      295.75675      267.7172      -31175.438    
  10310000   1.2121114      298.23273      519.29139     -31175.757    
  10311000   1.2121114      290.34854      209.78179     -31265.668    
  10312000   1.2121114      290.6873      -250.49285     -31252.303    
  10313000   1.2121114      290.09222      462.65363     -31302.701    
  10314000   1.2121114      296.71275     -252.63396     -31195.169    
  10315000   1.2121114      297.18033     -669.6197      -31138.674    
  10316000   1.2121114      296.68888     -540.65367     -31158.737    
  10317000   1.2121114      291.53876      432.22526     -31239.054    
  10318000   1.2121114      295.6407       582.10046     -31164.552    
  10319000   1.2121114      291.32816     -353.47374     -31281.769    
  10320000   1.2121114      301.97941      698.18786     -31081.172    
  10321000   1.2121114      298.16482      56.303254     -31190.779    
  10322000   1.2121114      299.90389      767.48158     -31196.808    
  10323000   1.2121114      304.47584      81.266124     -31169.096    
  10324000   1.2121114      291.32593     -376.1664      -31184.583    
  10325000   1.2121114      294.28716     -201.65331     -31149.407    
  10326000   1.2121114      289.11406     -75.491952     -31304.959    
  10327000   1.2121114      297.70289     -180.04329     -31161.153    
  10328000   1.2121114      293.34436      504.66955     -31216.368    
  10329000   1.2121114      287.38916      373.56921     -31170.824    
  10330000   1.2121114      296.19999     -101.87239     -31140.127    
  10331000   1.2121114      292.56521      315.66135     -31324.77     
  10332000   1.2121114      289.80499      66.381755     -31244.479    
  10333000   1.2121114      300.86844     -71.191185     -31100.804    
  10334000   1.2121114      298.74082      20.817452     -31223.562    
  10335000   1.2121114      300.42932      156.52922     -31154.719    
  10336000   1.2121114      292.58905     -832.90608     -31195.984    
  10337000   1.2121114      292.60386     -598.35385     -31254.603    
  10338000   1.2121114      297.80108      304.20833     -31179.231    
  10339000   1.2121114      309.87929      979.13662     -30999.42     
  10340000   1.2121114      294.28413      95.652321     -31259.167    
  10341000   1.2121114      296.64368     -634.10368     -31170.134    
  10342000   1.2121114      294.49671     -439.46778     -31188.277    
  10343000   1.2121114      296.91768      286.747       -31150.721    
  10344000   1.2121114      297.63218      129.2123      -31093.885    
  10345000   1.2121114      289.92704      272.57991     -31231.428    
  10346000   1.2121114      295.32377     -495.71425     -31222.762    
  10347000   1.2121114      288.91451     -721.15172     -31344.313    
  10348000   1.2121114      293.06411     -156.02336     -31252.473    
  10349000   1.2121114      299.17045     -533.88133     -31159.361    
  10350000   1.2121114      288.76607      255.70552     -31227.35     
  10351000   1.2121114      292.22049     -506.1027      -31218.252    
  10352000   1.2121114      293.53851     -818.09746     -31286.692    
  10353000   1.2121114      297.9611      -379.22845     -31165.06     
  10354000   1.2121114      286.17106     -504.19815     -31318.315    
  10355000   1.2121114      302.76288      12.63342      -31243.429    
  10356000   1.2121114      291.20707     -633.52249     -31203.803    
  10357000   1.2121114      289.74143      270.79354     -31273.287    
  10358000   1.2121114      289.94948     -18.282133     -31233.062    
  10359000   1.2121114      300.35758     -94.38328      -31174.139    
  10360000   1.2121114      303.39227      114.59023     -31134.629    
  10361000   1.2121114      300.82155     -66.913325     -31186.279    
  10362000   1.2121114      301.55903      459.16765     -31184.325    
  10363000   1.2121114      292.47153     -479.90453     -31288.655    
  10364000   1.2121114      300.78939      670.67329     -31162.739    
  10365000   1.2121114      300.32473     -8.4161124     -31254.353    
  10366000   1.2121114      298.22284     -528.22126     -31195.05     
  10367000   1.2121114      291.80927     -14.100721     -31273.183    
  10368000   1.2121114      300.30048     -636.16608     -31208.899    
  10369000   1.2121114      294.7455       420.27809     -31148.209    
  10370000   1.2121114      290.03662     -867.65713     -31243.345    
  10371000   1.2121114      300.49497     -358.16899     -31149.647    
  10372000   1.2121114      301.47803     -538.03784     -31210.155    
  10373000   1.2121114      295.5359      -128.66354     -31192.152    
  10374000   1.2121114      297.36528      245.18491     -31158.939    
  10375000   1.2121114      290.45414     -130.92498     -31251.585    
  10376000   1.2121114      298.35504      391.71511     -31122.668    
  10377000   1.2121114      293.74466     -440.26669     -31246.155    
  10378000   1.2121114      291.46384     -383.1613      -31304.622    
  10379000   1.2121114      290.95031     -298.92769     -31234.272    
  10380000   1.2121114      291.62577      90.47365      -31218.411    
  10381000   1.2121114      294.99926      554.68428     -31269.665    
  10382000   1.2121114      297.50796      790.83703     -31203.519    
  10383000   1.2121114      289.18123      114.5175      -31208.353    
  10384000   1.2121114      298.13745      533.93307     -31254.927    
  10385000   1.2121114      295.63857     -442.45839     -31220.077    
  10386000   1.2121114      300.99796     -275.47472     -31127.769    
  10387000   1.2121114      295.031        1420.3855     -31176.343    
  10388000   1.2121114      291.81707      854.19634     -31224.605    
  10389000   1.2121114      293.90623      155.74479     -31150.048    
  10390000   1.2121114      293.08353      169.96922     -31264.875    
  10391000   1.2121114      294.78797     -892.76228     -31184.564    
  10392000   1.2121114      290.79414     -555.16376     -31266.584    
  10393000   1.2121114      287.92345     -133.58461     -31252.815    
  10394000   1.2121114      292.252       -188.67065     -31276.01     
  10395000   1.2121114      299.33928     -11.97112      -31193.565    
  10396000   1.2121114      297.67312     -483.94441     -31224.184    
  10397000   1.2121114      293.64243      615.14099     -31228.643    
  10398000   1.2121114      300.87085      407.69679     -31234.835    
  10399000   1.2121114      295.9382       559.1303      -31230.955    
  10400000   1.2121114      293.20963      376.43643     -31289.914    
  10401000   1.2121114      298.24283      245.71249     -31232.288    
  10402000   1.2121114      293.61694      1125.9468     -31241.397    
  10403000   1.2121114      295.13838      521.76943     -31250.589    
  10404000   1.2121114      293.67176     -880.17235     -31227.037    
  10405000   1.2121114      293.15443     -576.68089     -31154.119    
  10406000   1.2121114      301.29336     -79.967511     -31127.298    
  10407000   1.2121114      292.83038     -285.37053     -31246.554    
  10408000   1.2121114      307.08028     -1072.0414     -31120.842    
  10409000   1.2121114      303.92776     -494.92167     -31146.379    
  10410000   1.2121114      302.74171     -76.570613     -31170.188    
  10411000   1.2121114      297.2808      -283.24456     -31160.746    
  10412000   1.2121114      299.22944     -794.85011     -31039.26     
  10413000   1.2121114      297.66866     -126.88808     -31109.523    
  10414000   1.2121114      292.22328     -445.69647     -31094.524    
  10415000   1.2121114      292.11242      524.29226     -31237.226    
  10416000   1.2121114      285.88918      105.35907     -31250.322    
  10417000   1.2121114      292.35987      608.41283     -31204.173    
  10418000   1.2121114      303.10334      312.57758     -31109.089    
  10419000   1.2121114      298.51326      199.6124      -31137.3      
  10420000   1.2121114      295.9763      -404.67248     -31168.644    
  10421000   1.2121114      297.16844     -592.92624     -31231.069    
  10422000   1.2121114      297.63917     -531.88926     -31050.866    
  10423000   1.2121114      294.63633      223.94385     -31075.436    
  10424000   1.2121114      299.16622      956.55252     -31093.913    
  10425000   1.2121114      294.25484      805.33859     -31131.545    
  10426000   1.2121114      296.255       -1.2510459     -31238.092    
  10427000   1.2121114      299.78629     -423.18435     -31150.402    
  10428000   1.2121114      291.96316      298.95085     -31208.462    
  10429000   1.2121114      302.14114     -714.19843     -31082.713    
  10430000   1.2121114      293.36036     -397.77706     -31179.368    
  10431000   1.2121114      289.32088      113.35018     -31229.395    
  10432000   1.2121114      294.61198      244.73052     -31130.697    
  10433000   1.2121114      297.42746     -243.45657     -31117.594    
  10434000   1.2121114      292.90577      179.40329     -31282.032    
  10435000   1.2121114      299.68303     -411.71324     -31144.625    
  10436000   1.2121114      300.72154     -924.38824     -31174.548    
  10437000   1.2121114      292.12047     -62.364313     -31200.587    
  10438000   1.2121114      287.87697     -1013.3941     -31300.633    
  10439000   1.2121114      297.37532     -5.5028252     -31211.607    
  10440000   1.2121114      289.25066      280.62194     -31316.783    
  10441000   1.2121114      300.16777      445.31751     -31280.996    
  10442000   1.2121114      294.66966      274.03619     -31214.155    
  10443000   1.2121114      299.61103     -12.144399     -31152.271    
  10444000   1.2121114      295.46954     -57.591423     -31258.505    
  10445000   1.2121114      295.25952      963.39651     -31286.807    
  10446000   1.2121114      297.4856      -747.98787     -31258.583    
  10447000   1.2121114      292.36739     -367.00409     -31219.684    
  10448000   1.2121114      297.0126       579.69292     -31212.029    
  10449000   1.2121114      310.22777      492.14631     -31012.044    
  10450000   1.2121114      299.97168      42.631791     -31188.914    
  10451000   1.2121114      288.87348      409.4677      -31271.177    
  10452000   1.2121114      296.66664      254.50724     -31167.689    
  10453000   1.2121114      294.10508     -297.41393     -31216.191    
  10454000   1.2121114      282.12204      157.0149      -31319.23     
  10455000   1.2121114      294.76855     -23.763732     -31290.982    
  10456000   1.2121114      294.41468      397.68356     -31254.477    
  10457000   1.2121114      302.57279     -799.88803     -31175.18     
  10458000   1.2121114      287.35062      437.86038     -31292.981    
  10459000   1.2121114      294.93559     -372.31682     -31231.579    
  10460000   1.2121114      296.30473     -300.00973     -31208.412    
  10461000   1.2121114      297.08497      42.27133      -31212.645    
  10462000   1.2121114      299.28083      190.35915     -31218.183    
  10463000   1.2121114      302.4057      -219.56659     -31148.935    
  10464000   1.2121114      292.5231       426.84909     -31292.689    
  10465000   1.2121114      287.90024      611.90652     -31270.864    
  10466000   1.2121114      303.86327      475.93135     -31169.626    
  10467000   1.2121114      296.77874      504.02592     -31125.253    
  10468000   1.2121114      296.5245      -3.9401663     -31189.376    
  10469000   1.2121114      289.11469     -386.73806     -31301.265    
  10470000   1.2121114      303.75807      208.799       -31106.126    
  10471000   1.2121114      293.67898     -402.19137     -31219.904    
  10472000   1.2121114      298.19973     -379.28149     -31194.282    
  10473000   1.2121114      295.79875     -89.422785     -31174.784    
  10474000   1.2121114      296.95357      303.56232     -31175.602    
  10475000   1.2121114      292.5535       525.71579     -31194.396    
  10476000   1.2121114      290.53546     -260.58891     -31292.171    
  10477000   1.2121114      295.15007      772.76895     -31229.347    
  10478000   1.2121114      297.68879     -298.24377     -31220.351    
  10479000   1.2121114      296.98697     -93.073042     -31123.17     
  10480000   1.2121114      293.83178     -298.01127     -31222.486    
  10481000   1.2121114      294.34674      874.2721      -31151.09     
  10482000   1.2121114      309.80233      29.7949       -31038.113    
  10483000   1.2121114      294.07751     -223.28381     -31188.133    
  10484000   1.2121114      301.27184      795.82562     -31194.65     
  10485000   1.2121114      293.09408      259.69735     -31176.144    
  10486000   1.2121114      299.66429      246.432       -31166.113    
  10487000   1.2121114      293.88403      232.48488     -31183.635    
  10488000   1.2121114      294.66056      693.21932     -31217.835    
  10489000   1.2121114      294.53406     -257.34636     -31238.689    
  10490000   1.2121114      298.56645     -32.426374     -31083.625    
  10491000   1.2121114      292.46853      377.29762     -31150.331    
  10492000   1.2121114      294.82758     -482.75086     -31110.789    
  10493000   1.2121114      297.8357       416.48402     -31136.763    
  10494000   1.2121114      296.07306      661.38368     -31162.112    
  10495000   1.2121114      295.8931      -303.14886     -31173.606    
  10496000   1.2121114      297.97797     -541.36225     -31177.129    
  10497000   1.2121114      300.05654     -543.24988     -31213.51     
  10498000   1.2121114      296.17273      144.08745     -31206.871    
  10499000   1.2121114      296.89222      453.85511     -31276.545    
  10500000   1.2121114      302.20009      545.85409     -31267.363    
  10501000   1.2121114      292.26115      160.84456     -31232.776    
  10502000   1.2121114      302.25715     -235.80705     -31175.178    
  10503000   1.2121114      298.34273     -394.31444     -31187.273    
  10504000   1.2121114      295.47109      113.26127     -31280.637    
  10505000   1.2121114      297.93571      419.7455      -31219.095    
  10506000   1.2121114      293.50595      664.80189     -31221.952    
  10507000   1.2121114      288.11695      460.55737     -31330.931    
  10508000   1.2121114      296.6919      -86.592849     -31177.152    
  10509000   1.2121114      290.5178       765.98412     -31268.491    
  10510000   1.2121114      295.15661     -398.28952     -31302.633    
  10511000   1.2121114      294.41767     -44.332479     -31269.376    
  10512000   1.2121114      294.08946     -917.48003     -31106.351    
  10513000   1.2121114      293.00324     -491.9714      -31221.98     
  10514000   1.2121114      294.48521      172.71204     -31173.315    
  10515000   1.2121114      289.31351      175.47488     -31243.323    
  10516000   1.2121114      300.24104     -171.43817     -31172.267    
  10517000   1.2121114      295.32543      216.64838     -31101.711    
  10518000   1.2121114      286.26944      584.32251     -31300.17     
  10519000   1.2121114      300.71428      42.845311     -31121.356    
  10520000   1.2121114      295.70553     -315.79015     -31193.728    
  10521000   1.2121114      303.70009      906.17554     -31067.229    
  10522000   1.2121114      297.76669      92.916031     -31180.806    
  10523000   1.2121114      294.22762      572.39504     -31255.051    
  10524000   1.2121114      291.55519      179.42944     -31235.585    
  10525000   1.2121114      296.65704      182.57851     -31171.1      
  10526000   1.2121114      291.7406      -380.54394     -31196.408    
  10527000   1.2121114      289.54643     -47.595284     -31112.207    
  10528000   1.2121114      294.55219      290.84448     -31123.558    
  10529000   1.2121114      296.18982      557.10243     -31265.8      
  10530000   1.2121114      293.33473     -179.03095     -31139.749    
  10531000   1.2121114      288.42346      86.610487     -31280.185    
  10532000   1.2121114      299.73186     -315.29356     -31109.199    
  10533000   1.2121114      294.31308      68.880814     -31129.366    
  10534000   1.2121114      307.24251     -394.88198     -31095.063    
  10535000   1.2121114      300.99263      1213.7132     -31105.802    
  10536000   1.2121114      290.37728      671.18814     -31144.2      
  10537000   1.2121114      300.72812      28.922929     -31133.911    
  10538000   1.2121114      299.40336      562.35531     -31109.938    
  10539000   1.2121114      294.42729     -72.029754     -31189.22     
  10540000   1.2121114      296.43245     -248.31439     -31195.748    
  10541000   1.2121114      296.343        171.96373     -31237.866    
  10542000   1.2121114      303.38546      174.00344     -31203.67     
  10543000   1.2121114      291.41198      273.08167     -31240.399    
  10544000   1.2121114      298.76388      7.6026387     -31154.638    
  10545000   1.2121114      298.6555      -24.205355     -31211.631    
  10546000   1.2121114      298.50597      445.57321     -31288.727    
  10547000   1.2121114      290.49873     -275.58192     -31280.634    
  10548000   1.2121114      301.39246     -205.31027     -31268.878    
  10549000   1.2121114      305.84363     -358.39871     -31153.493    
  10550000   1.2121114      294.66585     -94.703187     -31256.909    
Loop time of 1501.82 on 32 procs for 500000 steps with 3486 atoms

Performance: 57.530 ns/day, 0.417 hours/ns, 332.929 timesteps/s
99.5% CPU use with 32 MPI tasks x no OpenMP threads

MPI task timing breakdown:
Section |  min time  |  avg time  |  max time  |%varavg| %total
---------------------------------------------------------------
Pair    | 436.24     | 486.34     | 526.65     | 113.1 | 32.38
Bond    | 1.8199     | 1.966      | 2.0328     |   4.7 |  0.13
Kspace  | 283.92     | 323.44     | 365.63     | 126.9 | 21.54
Neigh   | 163.98     | 170.46     | 177.06     |  33.4 | 11.35
Comm    | 116.19     | 121.34     | 127.2      |  28.0 |  8.08
Output  | 34.685     | 34.692     | 34.721     |   0.1 |  2.31
Modify  | 351.05     | 357.72     | 363.13     |  17.6 | 23.82
Other   |            | 5.87       |            |       |  0.39

Nlocal:        108.938 ave         121 max          98 min
Histogram: 1 1 1 10 4 8 4 1 1 1
Nghost:        4468.16 ave        4499 max        4440 min
Histogram: 2 1 2 6 6 3 10 1 0 1
Neighs:        45143.4 ave       49946 max       38294 min
Histogram: 1 0 0 4 6 6 6 4 2 3

Total # of neighbors = 1444589
Ave neighs/atom = 414.3973
Ave special neighs/atom = 2.0929432
Neighbor list builds = 128646
Dangerous builds = 0
