LAMMPS (23 Jun 2022 - Update 1)
Reading data file ...
  orthogonal box = (0 0 0) to (32.73665 32.73665 32.73665)
  2 by 4 by 4 MPI processor grid
  reading atoms ...
  3486 atoms
  scanning bonds ...
  4 = max bonds/atom
  scanning angles ...
  6 = max angles/atom
  reading bonds ...
  2324 bonds
  reading angles ...
  1324 angles
Finding 1-2 1-3 1-4 neighbors ...
  special bond factors lj:    0        0        0       
  special bond factors coul:  0        0        0       
     4 = max # of 1-2 neighbors
     3 = max # of 1-3 neighbors
     3 = max # of 1-4 neighbors
     4 = max # of special neighbors
  special bonds CPU = 0.001 seconds
  read_data CPU = 0.018 seconds
Setting atom values ...
  1000 settings made for charge
Setting atom values ...
  2000 settings made for charge
Setting atom values ...
  108 settings made for charge
Setting atom values ...
  108 settings made for charge
Setting atom values ...
  54 settings made for charge
Setting atom values ...
  216 settings made for charge
1000 atoms in group wat
108 atoms in group Li
54 atoms in group S
  create bodies CPU = 0.000 seconds
  1162 rigid bodies with 3486 atoms
  1.4900075 = max distance from body owner to body atom
PPPM initialization ...
  extracting TIP4P info from pair style
  using 12-bit tables for long-range coulomb (../kspace.cpp:342)
  G vector (1/distance) = 0.30884801
  grid = 30 30 30
  stencil order = 5
  estimated absolute RMS force accuracy = 0.0040043444
  estimated relative force accuracy = 1.2058964e-05
  using double precision KISS FFT
  3d grid and FFT values/proc = 4950 960
Generated 0 of 15 mixed pair_coeff terms from arithmetic mixing rule
Neighbor list info ...
  update every 1 steps, delay 0 steps, check yes
  max neighbors/atom: 2000, page size: 100000
  master list distance cutoff = 12.3092
  ghost atom cutoff = 12.3092
  binsize = 6.1546, bins = 6 6 6
  1 neighbor lists, perpetual/occasional/extra = 1 0 0
  (1) pair lj/cut/tip4p/long, perpetual
      attributes: half, newton on
      pair build: half/bin/newton
      stencil: half/bin/3d
      bin: standard
Setting up Verlet run ...
  Unit style    : real
  Current step  : 0
  Time step     : 0.001
Per MPI rank memory allocation (min/avg/max) = 15.47 | 15.5 | 15.53 Mbytes
   Step        Density          Temp          Press          TotEng    
         0   1.1336932      299.23764      13072897       8351.2407    
      1000   1.1320945      339.16985      121610.31      8261.8696    
      2000   1.1279119      451.22843      114848.51      8026.5174    
      3000   1.1213129      621.74061      103458.58      7635.8666    
      4000   1.1125797      829.60443      88647.291      7072.8159    
      5000   1.1020804      1060.4519      74602.773      6383.0718    
      6000   1.0902008      1294.6429      59758.247      5572.7612    
      7000   1.0773523      1514.8923      45730.437      4654.661     
      8000   1.0639401      1708.1775      33427.143      3650.5922    
      9000   1.0503316      1864.8115      22669.969      2579.7403    
     10000   1.036845       1980.1183      13725.032      1468.0222    
Loop time of 28.8903 on 32 procs for 10000 steps with 3486 atoms

Performance: 0.030 ns/day, 802.508 hours/ns, 346.137 timesteps/s
99.5% CPU use with 32 MPI tasks x no OpenMP threads

MPI task timing breakdown:
Section |  min time  |  avg time  |  max time  |%varavg| %total
---------------------------------------------------------------
Pair    | 9.623      | 12.287     | 14.52      |  35.9 | 42.53
Bond    | 0.038896   | 0.048019   | 0.060448   |   2.5 |  0.17
Kspace  | 5.4141     | 7.7133     | 10.331     |  45.1 | 26.70
Neigh   | 0.0023301  | 0.002513   | 0.0027417  |   0.3 |  0.01
Comm    | 1.4043     | 1.6359     | 1.7956     |  10.8 |  5.66
Output  | 0.00051372 | 0.00052877 | 0.0007797  |   0.0 |  0.00
Modify  | 6.5097     | 6.7935     | 6.9792     |   5.6 | 23.51
Other   |            | 0.41       |            |       |  1.42

Nlocal:        108.938 ave         120 max          93 min
Histogram: 1 1 1 2 6 4 4 6 4 3
Nghost:        4090.16 ave        4139 max        4037 min
Histogram: 3 2 4 5 2 2 2 3 4 5
Neighs:        39995.8 ave       46915 max       32492 min
Histogram: 1 2 2 7 2 6 5 3 2 2

Total # of neighbors = 1279867
Ave neighs/atom = 367.14487
Ave special neighs/atom = 2.0929432
Neighbor list builds = 2
Dangerous builds = 0
PPPM initialization ...
  extracting TIP4P info from pair style
  using 12-bit tables for long-range coulomb (../kspace.cpp:342)
  G vector (1/distance) = 0.31135233
  grid = 32 32 32
  stencil order = 5
  estimated absolute RMS force accuracy = 0.0032774481
  estimated relative force accuracy = 9.8699377e-06
  using double precision KISS FFT
  3d grid and FFT values/proc = 5175 1024
Generated 0 of 15 mixed pair_coeff terms from arithmetic mixing rule
Setting up Verlet run ...
  Unit style    : real
  Current step  : 10000
  Time step     : 0.01
Per MPI rank memory allocation (min/avg/max) = 15.5 | 15.52 | 15.54 Mbytes
   Step        Density          Temp          Press          TotEng    
     10000   1.036845       1980.1183      10976.129      1468.0411    
     11000   0.9358141      1620.2948     -14869.839     -7882.2808    
     12000   0.89169658     1125.9987     -13602.336     -12345.43     
     13000   0.88280879     940.46706     -11759.2       -15232.74     
     14000   0.89929434     792.07816     -9666.7409     -17433.862    
     15000   0.93529854     698.00506     -7413.9274     -19098.502    
     16000   0.98382423     637.05818     -3894.2598     -20433.144    
     17000   1.03539        604.04931     -330.59537     -21488.195    
     18000   1.0823164      593.58501      1200.1717     -22413.384    
     19000   1.121581       557.74243      3322.7207     -23233.418    
     20000   1.1509846      541.28676      3216.8966     -23989.778    
Loop time of 27.8256 on 32 procs for 10000 steps with 3486 atoms

Performance: 0.311 ns/day, 77.293 hours/ns, 359.382 timesteps/s
99.5% CPU use with 32 MPI tasks x no OpenMP threads

MPI task timing breakdown:
Section |  min time  |  avg time  |  max time  |%varavg| %total
---------------------------------------------------------------
Pair    | 8.8855     | 11.085     | 13.792     |  34.8 | 39.84
Bond    | 0.04034    | 0.048444   | 0.060468   |   2.2 |  0.17
Kspace  | 5.5197     | 8.3373     | 10.477     |  39.7 | 29.96
Neigh   | 0.019372   | 0.020629   | 0.022185   |   0.8 |  0.07
Comm    | 1.289      | 1.4953     | 1.6437     |  10.2 |  5.37
Output  | 0.00044803 | 0.00047151 | 0.0010984  |   0.0 |  0.00
Modify  | 6.4067     | 6.563      | 6.6432     |   2.5 | 23.59
Other   |            | 0.275      |            |       |  0.99

Nlocal:        108.938 ave         126 max          95 min
Histogram: 4 0 5 3 7 4 5 2 1 1
Nghost:        4341.53 ave        4374 max        4319 min
Histogram: 3 1 7 6 6 5 0 1 1 2
Neighs:        42932.4 ave       50809 max       36262 min
Histogram: 3 2 5 2 5 8 1 2 1 3

Total # of neighbors = 1373836
Ave neighs/atom = 394.10098
Ave special neighs/atom = 2.0929432
Neighbor list builds = 17
Dangerous builds = 0
PPPM initialization ...
  extracting TIP4P info from pair style
  using 12-bit tables for long-range coulomb (../kspace.cpp:342)
  G vector (1/distance) = 0.30921396
  grid = 30 30 30
  stencil order = 5
  estimated absolute RMS force accuracy = 0.003944513
  estimated relative force accuracy = 1.1878784e-05
  using double precision KISS FFT
  3d grid and FFT values/proc = 4950 960
Generated 0 of 15 mixed pair_coeff terms from arithmetic mixing rule
Setting up Verlet run ...
  Unit style    : real
  Current step  : 20000
  Time step     : 0.1
Per MPI rank memory allocation (min/avg/max) = 15.47 | 15.5 | 15.53 Mbytes
   Step        Density          Temp          Press          TotEng    
     20000   1.1509846      541.28676      2597.5707     -23989.817    
     21000   1.2344803      340.48996      206.59812     -28355.91     
     22000   1.2373325      302.30157      342.50963     -29580.974    
     23000   1.2268412      299.14233      250.56799     -29917.46     
     24000   1.2196606      301.24707     -437.75242     -30102.009    
     25000   1.215491       290.66104     -893.3313      -30306.192    
     26000   1.2226916      290.20812     -10.611214     -30445.7      
     27000   1.2232735      295.40462      797.89413     -30499.488    
     28000   1.2206668      302.39835      411.0467      -30417.794    
     29000   1.2158472      297.8148      -564.47404     -30519.228    
     30000   1.2195716      306.17662      403.1856      -30503.239    
Loop time of 31.2913 on 32 procs for 10000 steps with 3486 atoms

Performance: 2.761 ns/day, 8.692 hours/ns, 319.577 timesteps/s
99.6% CPU use with 32 MPI tasks x no OpenMP threads

MPI task timing breakdown:
Section |  min time  |  avg time  |  max time  |%varavg| %total
---------------------------------------------------------------
Pair    | 12.545     | 13.924     | 15.879     |  22.1 | 44.50
Bond    | 0.041996   | 0.048981   | 0.059155   |   1.8 |  0.16
Kspace  | 5.8288     | 7.5739     | 8.8679     |  28.5 | 24.20
Neigh   | 0.13033    | 0.13981    | 0.15188    |   2.4 |  0.45
Comm    | 1.5173     | 1.7652     | 1.9209     |  11.7 |  5.64
Output  | 0.00041549 | 0.0004378  | 0.00097648 |   0.0 |  0.00
Modify  | 7.1023     | 7.393      | 7.6141     |   5.4 | 23.63
Other   |            | 0.4461     |            |       |  1.43

Nlocal:        108.938 ave         119 max          94 min
Histogram: 1 1 2 1 3 8 6 4 2 4
Nghost:        4522.91 ave        4557 max        4493 min
Histogram: 2 3 6 1 3 7 4 4 1 1
Neighs:        45400.6 ave       53114 max       38722 min
Histogram: 2 1 6 3 7 3 4 3 2 1

Total # of neighbors = 1452819
Ave neighs/atom = 416.75818
Ave special neighs/atom = 2.0929432
Neighbor list builds = 103
Dangerous builds = 0
PPPM initialization ...
  extracting TIP4P info from pair style
  using 12-bit tables for long-range coulomb (../kspace.cpp:342)
  G vector (1/distance) = 0.31060829
  grid = 30 30 30
  stencil order = 5
  estimated absolute RMS force accuracy = 0.003724031
  estimated relative force accuracy = 1.1214809e-05
  using double precision KISS FFT
  3d grid and FFT values/proc = 4950 960
Generated 0 of 15 mixed pair_coeff terms from arithmetic mixing rule
Setting up Verlet run ...
  Unit style    : real
  Current step  : 30000
  Time step     : 0.2
Per MPI rank memory allocation (min/avg/max) = 15.48 | 15.51 | 15.53 Mbytes
   Step        Density          Temp          Press          TotEng    
     30000   1.2195716      306.17662      2140.6706     -30503.242    
     31000   1.221363       286.36774      728.40905     -30655.46     
     32000   1.225557       295.81065      1206.9497     -30775.18     
     33000   1.2071295      289.9754      -219.22964     -30712.31     
     34000   1.2119594      293.14195     -51.065503     -30762.167    
     35000   1.2071517      296.92        -1160.9363     -30725.141    
     36000   1.2036153      297.6723      -384.72389     -30736.795    
     37000   1.202916       294.84597     -240.24208     -30751.413    
     38000   1.2108464      296.12766      429.51929     -30839.956    
     39000   1.2031232      293.66141      508.18772     -30800.217    
     40000   1.2123737      297.67666      320.93361     -30779.887    
Loop time of 31.3154 on 32 procs for 10000 steps with 3486 atoms

Performance: 5.518 ns/day, 4.349 hours/ns, 319.331 timesteps/s
99.6% CPU use with 32 MPI tasks x no OpenMP threads

MPI task timing breakdown:
Section |  min time  |  avg time  |  max time  |%varavg| %total
---------------------------------------------------------------
Pair    | 12.413     | 13.981     | 15.644     |  20.2 | 44.65
Bond    | 0.042641   | 0.048802   | 0.057492   |   1.5 |  0.16
Kspace  | 5.5392     | 7.2472     | 8.7365     |  26.4 | 23.14
Neigh   | 0.31045    | 0.33138    | 0.35931    |   3.5 |  1.06
Comm    | 1.5521     | 1.793      | 1.9462     |  11.7 |  5.73
Output  | 0.00039196 | 0.00043743 | 0.0017561  |   0.0 |  0.00
Modify  | 7.1801     | 7.4678     | 7.6837     |   5.3 | 23.85
Other   |            | 0.4457     |            |       |  1.42

Nlocal:        108.938 ave         119 max         100 min
Histogram: 1 2 7 7 1 4 4 2 2 2
Nghost:        4509.94 ave        4555 max        4476 min
Histogram: 3 5 4 4 3 5 2 2 2 2
Neighs:        45219.8 ave       50211 max       40242 min
Histogram: 4 2 1 3 8 2 4 2 3 3

Total # of neighbors = 1447032
Ave neighs/atom = 415.09811
Ave special neighs/atom = 2.0929432
Neighbor list builds = 238
Dangerous builds = 0
PPPM initialization ...
  extracting TIP4P info from pair style
  using 12-bit tables for long-range coulomb (../kspace.cpp:342)
  G vector (1/distance) = 0.31046607
  grid = 30 30 30
  stencil order = 5
  estimated absolute RMS force accuracy = 0.0037459881
  estimated relative force accuracy = 1.1280932e-05
  using double precision KISS FFT
  3d grid and FFT values/proc = 4950 960
Generated 0 of 15 mixed pair_coeff terms from arithmetic mixing rule
Setting up Verlet run ...
  Unit style    : real
  Current step  : 40000
  Time step     : 0.5
Per MPI rank memory allocation (min/avg/max) = 15.48 | 15.51 | 15.53 Mbytes
   Step        Density          Temp          Press          TotEng    
     40000   1.2123737      297.67666      947.91412     -30779.887    
     41000   1.2136986      294.80398      248.10311     -30973.943    
     42000   1.2103958      300.15639      207.54823     -30898.157    
     43000   1.2050948      299.52246     -611.02135     -30894.069    
     44000   1.2067796      295.65926      122.31441     -31014.347    
     45000   1.2129618      292.9651       652.0272      -31068.402    
     46000   1.2042365      291.71477     -1058.4168     -31027.974    
     47000   1.2008818      301.40029      193.92212     -31023.549    
     48000   1.2129939      294.81484      538.77247     -31058.301    
     49000   1.2113295      303.83797     -9.9631501     -30981.725    
     50000   1.2151044      302.01689      1126.467      -31025.343    
Loop time of 32.2791 on 32 procs for 10000 steps with 3486 atoms

Performance: 13.383 ns/day, 1.793 hours/ns, 309.798 timesteps/s
99.6% CPU use with 32 MPI tasks x no OpenMP threads

MPI task timing breakdown:
Section |  min time  |  avg time  |  max time  |%varavg| %total
---------------------------------------------------------------
Pair    | 11.821     | 14.083     | 15.489     |  21.0 | 43.63
Bond    | 0.040968   | 0.04899    | 0.054905   |   1.7 |  0.15
Kspace  | 5.9172     | 7.3146     | 9.5021     |  27.0 | 22.66
Neigh   | 0.80301    | 0.85764    | 0.93083    |   5.7 |  2.66
Comm    | 1.5999     | 1.8599     | 2.0296     |  12.3 |  5.76
Output  | 0.00036737 | 0.00039434 | 0.0010678  |   0.0 |  0.00
Modify  | 7.3954     | 7.6685     | 7.8571     |   5.0 | 23.76
Other   |            | 0.4462     |            |       |  1.38

Nlocal:        108.938 ave         121 max          99 min
Histogram: 3 2 1 7 4 8 2 3 1 1
Nghost:        4495.09 ave        4514 max        4464 min
Histogram: 1 1 1 3 3 2 7 6 5 3
Neighs:        45285.2 ave       52087 max       40477 min
Histogram: 3 4 6 4 4 4 2 2 1 2

Total # of neighbors = 1449128
Ave neighs/atom = 415.69937
Ave special neighs/atom = 2.0929432
Neighbor list builds = 619
Dangerous builds = 0
  create bodies CPU = 0.000 seconds
  1162 rigid bodies with 3486 atoms
  1.4902053 = max distance from body owner to body atom
PPPM initialization ...
  extracting TIP4P info from pair style
  using 12-bit tables for long-range coulomb (../kspace.cpp:342)
  G vector (1/distance) = 0.31052013
  grid = 30 30 30
  stencil order = 5
  estimated absolute RMS force accuracy = 0.0037376272
  estimated relative force accuracy = 1.1255753e-05
  using double precision KISS FFT
  3d grid and FFT values/proc = 4950 960
Generated 0 of 15 mixed pair_coeff terms from arithmetic mixing rule
Setting up Verlet run ...
  Unit style    : real
  Current step  : 0
  Time step     : 1
Per MPI rank memory allocation (min/avg/max) = 16.5 | 16.53 | 16.56 Mbytes
   Step        Density          Temp          Press          TotEng    
         0   1.2151044      302.01689     -585.14606     -31025.342    
      1000   1.2063439      298.14518     -7.1177299     -31001.23     
      2000   1.2172111      301.41549      867.58935     -31073.801    
      3000   1.214554       305.05698     -351.24596     -31040.964    
      4000   1.2160356      299.09533     -708.66849     -31172.395    
      5000   1.2134405      300.18264     -222.81799     -31051.699    
      6000   1.2228653      295.57374     -147.46668     -31179.119    
      7000   1.2189936      295.98818      201.40628     -31071.409    
      8000   1.2089772      297.67454     -147.76629     -31021.727    
      9000   1.2120955      300.61038      17.981383     -31031.179    
     10000   1.2240247      292.62577      718.57035     -31257.008    
     11000   1.2154111      295.55425      54.85547      -31165.601    
     12000   1.2154572      303.23785     -221.17309     -31287.522    
     13000   1.2081764      295.52805     -177.72039     -31168.881    
     14000   1.2185963      302.24501      335.08682     -31207.507    
     15000   1.2053514      302.01576     -550.52881     -31167.826    
     16000   1.2169714      302.99099      368.85962     -31223.735    
     17000   1.2025871      289.09206      240.28762     -31148.571    
     18000   1.2118192      295.63118      25.759687     -31159.81     
     19000   1.2053564      306.70351     -10.896017     -31025.301    
     20000   1.2185983      289.88839      276.65879     -31106.46     
     21000   1.2205508      293.5642      -127.02667     -31215.65     
     22000   1.215672       295.68318      295.20805     -31174.174    
     23000   1.2042202      293.29288     -628.10393     -31182.283    
     24000   1.2130777      299.4704      -110.46123     -31170.213    
     25000   1.2058869      292.20864      512.19041     -31243.864    
     26000   1.2029071      297.52835     -220.98129     -31201.93     
     27000   1.2007109      303.21601     -154.46        -31119.201    
     28000   1.2070899      296.10645      131.5058      -31158.782    
     29000   1.214195       299.65809      498.01618     -31190.707    
     30000   1.2123172      297.23296     -153.28796     -31175.288    
     31000   1.2157541      294.53319      912.86322     -31197.77     
     32000   1.2088569      280.99228      455.04042     -31239.112    
     33000   1.2183687      295.29255     -36.173018     -31190.332    
     34000   1.2060276      300.0492       101.67486     -31059.126    
     35000   1.2210187      291.65913     -366.89962     -31172.343    
     36000   1.2136362      297.15545      630.49613     -31180.297    
     37000   1.2183345      292.08042      109.14962     -31190.742    
     38000   1.2165891      301.46867      200.7863      -31189.037    
     39000   1.209051       294.88538     -710.44647     -31207.413    
     40000   1.2121725      292.30507      341.52959     -31205.837    
     41000   1.2135448      300.37689      359.7273      -31163.734    
     42000   1.2003181      300.03882     -367.14324     -31197.111    
     43000   1.2285602      299.4898       970.04995     -31207.987    
     44000   1.2143023      293.48697      1.5536699     -31133.429    
     45000   1.214633       288.86162     -1242.6412     -31206.964    
     46000   1.217347       297.95616     -214.9002      -31248.673    
     47000   1.2133683      298.09461      333.23862     -31128.942    
     48000   1.2215302      297.79893     -223.25904     -31266.555    
     49000   1.2111949      297.51115      39.918456     -31174.238    
     50000   1.2031233      295.62472     -196.35087     -31126.112    
     51000   1.2160498      295.28796     -14.014973     -31285.083    
     52000   1.2018567      300.10876      38.767982     -31236.179    
     53000   1.1989657      295.34376      359.33284     -31167.215    
     54000   1.2065349      293.5232       295.46459     -31251.278    
     55000   1.2181492      298.16859      1034.5076     -31192.685    
     56000   1.2168543      298.36637      359.88427     -31303.506    
     57000   1.2046629      304.60308     -84.802892     -31256.775    
     58000   1.2080588      287.60474      121.53716     -31290.651    
     59000   1.1974261      308.61252     -535.00718     -31094.315    
     60000   1.2154096      290.71729     -450.05125     -31322.696    
     61000   1.2121012      298.91735     -641.46884     -31205.767    
     62000   1.20898        306.19724      442.78996     -31054.768    
     63000   1.1958715      302.28036     -384.84889     -31137.933    
     64000   1.2097147      292.32427      211.80429     -31291.471    
     65000   1.2107593      298.33722     -46.052561     -31203.103    
     66000   1.2155591      307.32894      959.17437     -31127.972    
     67000   1.2074977      296.2835      -280.12371     -31190.09     
     68000   1.2062723      301.9406       538.23888     -31132.857    
     69000   1.2096237      288.74068      430.13292     -31209.216    
     70000   1.2056111      297.1297      -557.90526     -31271.107    
     71000   1.204892       297.31117     -79.499604     -31220.897    
     72000   1.2061326      293.48653      149.33605     -31226.997    
     73000   1.199358       298.2989      -572.38743     -31205.206    
     74000   1.2122577      299.7592      -205.98694     -31200.813    
     75000   1.2047379      294.32396      325.40833     -31268.191    
     76000   1.2111164      291.98601      594.62046     -31334.564    
     77000   1.2061987      295.56083      285.71139     -31268.713    
     78000   1.2123234      296.60589      110.61098     -31179.486    
     79000   1.2179961      304.11295      502.15062     -31129.156    
     80000   1.1988176      299.95524      503.68986     -31176.647    
     81000   1.2140751      292.54958      223.82098     -31282.732    
     82000   1.2073126      298.48491     -9.328348      -31244.576    
     83000   1.2129194      304.55155     -202.82196     -31201.565    
     84000   1.2140476      296.21459      156.82025     -31194.199    
     85000   1.2205992      290.95601      1929.8881     -31222.447    
     86000   1.2071037      300.51229     -641.89499     -31231.256    
     87000   1.1987792      299.25566     -472.1522      -31241.108    
     88000   1.2126769      306.98635      109.44913     -31149.647    
     89000   1.2104915      290.01032     -258.14028     -31240.187    
     90000   1.2049689      295.15348     -959.17074     -31175.169    
     91000   1.2060043      300.96015      303.81823     -31164.09     
     92000   1.2123109      301.12045     -33.099872     -31190.984    
     93000   1.1975704      302.23186     -546.78229     -31154.025    
     94000   1.2196682      293.34429      675.61168     -31171.47     
     95000   1.2054146      300.14135     -572.62224     -31165.734    
     96000   1.2147576      294.11134     -232.34055     -31212.571    
     97000   1.1996338      314.46497      148.00271     -31038.24     
     98000   1.2245512      299.70049      907.84907     -31179.874    
     99000   1.2100952      299.98103      794.78433     -31154.387    
    100000   1.2129386      294.24854      297.69812     -31224.634    
    101000   1.2063863      303.5429       92.455441     -31097.088    
    102000   1.2119514      296.89905      116.20595     -31125.821    
    103000   1.2140007      298.16413     -163.94538     -31187.755    
    104000   1.214518       301.38996     -125.83228     -31187.592    
    105000   1.2127124      294.14116     -50.306409     -31272.02     
    106000   1.2115559      304.88192     -107.08112     -31158.972    
    107000   1.2206566      298.78918     -637.9883      -31220.737    
    108000   1.200163       298.59625     -579.09626     -31167.134    
    109000   1.2140405      305.12407      260.71556     -31226.197    
    110000   1.2137418      304.59634     -72.882124     -31178.404    
    111000   1.214158       298.27906      361.40422     -31236.982    
    112000   1.2107819      309.03818      142.96374     -31101.547    
    113000   1.2140284      296.2066      -14.117665     -31275.68     
    114000   1.2181589      298.93997      556.20974     -31216.996    
    115000   1.2044848      298.82894     -549.04        -31063.839    
    116000   1.2229994      302.47825      345.41213     -31207.138    
    117000   1.2155995      297.41999     -496.38028     -31172.152    
    118000   1.2177187      291.19651      15.519403     -31161.832    
    119000   1.2251155      300.66899      1231.9324     -31227.056    
    120000   1.20713        290.85615     -532.65476     -31311.284    
    121000   1.2146676      297.61375      225.60289     -31170.821    
    122000   1.2093824      289.07788     -164.35747     -31256.283    
    123000   1.2186945      300.13232     -133.77529     -31198.803    
    124000   1.2068296      289.83326     -568.09466     -31258.913    
    125000   1.2123641      297.43123      2.747489      -31192.178    
    126000   1.2092142      299.47979     -165.83876     -31115.481    
    127000   1.2167532      296.88554     -300.54571     -31217.889    
    128000   1.2053801      299.74672     -784.21909     -31183.902    
    129000   1.2260593      298.09325     -212.16436     -31306.695    
    130000   1.2186321      292.96645      486.31607     -31210.632    
    131000   1.2034145      307.11999     -717.6719      -31086.789    
    132000   1.2116049      299.67454     -30.465459     -31213.396    
    133000   1.2170178      295.3291       999.29993     -31280.036    
    134000   1.2125338      296.05824      64.740699     -31219.523    
    135000   1.2116218      296.70116      130.18267     -31263.302    
    136000   1.2129333      291.69635      878.07876     -31248.853    
    137000   1.2130717      295.20011     -617.62169     -31168.134    
    138000   1.2153844      296.76787      335.12394     -31159.722    
    139000   1.2089461      289.63006      457.03435     -31215.874    
    140000   1.2068035      294.46922     -267.91011     -31216.057    
    141000   1.2146319      301.25656      97.647928     -31082.113    
    142000   1.2116749      297.26692     -766.15828     -31177.205    
    143000   1.2313871      300.22534      722.95661     -31184.848    
    144000   1.2019888      297.11872      85.247305     -31109.528    
    145000   1.2190759      296.18196     -118.78209     -31167.639    
    146000   1.211773       289.19647     -96.971633     -31262.892    
    147000   1.2033045      296.08208      190.2557      -31136.369    
    148000   1.2098189      295.79052      235.09814     -31199.64     
    149000   1.219345       306.09708      216.15621     -31158.873    
    150000   1.2164515      296.32292      79.453822     -31281.724    
    151000   1.217232       297.51316      734.59012     -31188.219    
    152000   1.2073032      302.37027     -558.30834     -31116.422    
    153000   1.2160119      294.42602      156.14996     -31158.193    
    154000   1.2126677      289.67171     -482.39928     -31218.573    
    155000   1.2097557      295.97546      330.05656     -31200.167    
    156000   1.2181837      305.50003      785.53062     -31077.733    
    157000   1.2123656      297.09095      551.34681     -31147.949    
    158000   1.2073432      301.15679     -158.42951     -31233.974    
    159000   1.218013       295.29898      790.86025     -31190.178    
    160000   1.2071358      295.6339      -279.78689     -31216.001    
    161000   1.2097347      293.43177     -53.012837     -31145.777    
    162000   1.218752       302.07569      868.48134     -31179.574    
    163000   1.2116025      298.65631     -767.68435     -31200.751    
    164000   1.2173314      294.62233      391.60088     -31225.343    
    165000   1.2218013      312.68924     -61.824305     -31158.608    
    166000   1.220207       293.24239      213.32683     -31309.628    
    167000   1.2229722      299.67521      401.31647     -31182.046    
    168000   1.2095152      297.1243      -533.00503     -31247.749    
    169000   1.2267782      300.54982      229.74998     -31177.452    
    170000   1.2141833      292.12143     -393.73782     -31254.065    
    171000   1.2104366      305.43795     -87.752868     -31013.108    
    172000   1.2063589      299.48033     -508.13467     -31051.682    
    173000   1.2118401      297.02161      123.916       -31160.263    
    174000   1.2056884      296.65381     -397.72573     -31306.435    
    175000   1.2164682      303.60528      911.61492     -31140.313    
    176000   1.2002664      299.73447     -601.80166     -31139.288    
    177000   1.2120097      298.03721      558.68907     -31029.417    
    178000   1.1983762      298.76184     -336.95958     -31117.949    
    179000   1.1983305      300.5565      -290.59647     -31143.115    
    180000   1.1981907      301.67565     -308.99475     -31157.295    
    181000   1.2058911      302.46725      135.54868     -31170.244    
    182000   1.2078556      290.90084     -793.06747     -31193.182    
    183000   1.2229804      294.4228       657.76339     -31114.541    
    184000   1.2101307      293.83278     -432.67224     -31221.209    
    185000   1.2100766      297.26079      499.52466     -31121.79     
    186000   1.2190292      300.01112     -102.38769     -31229.123    
    187000   1.2048951      293.19073     -945.47431     -31240.497    
    188000   1.2100177      301.41915     -692.79278     -31206.692    
    189000   1.212032       294.77096      151.34116     -31327.214    
    190000   1.2181286      304.39899     -248.78996     -31234.478    
    191000   1.217871       294.76547     -1209.208      -31259.605    
    192000   1.2027513      299.12693     -1032.0463     -31145.023    
    193000   1.2160249      305.17633     -560.27469     -31185.712    
    194000   1.2194423      306.16698      801.30607     -31131.354    
    195000   1.2147034      292.47957      462.7027      -31192.013    
    196000   1.1966297      295.26607     -1399.4974     -31183.045    
    197000   1.2165027      307.64636     -159.14007     -31170.339    
    198000   1.2040679      300.1288      -511.11667     -31124.134    
    199000   1.2087168      305.46855     -617.10791     -31166.41     
    200000   1.214172       303.60706     -135.07202     -31110.603    
    201000   1.2182427      300.52677      836.37063     -31190.354    
    202000   1.2057532      293.1446      -190.53524     -31248.839    
    203000   1.2162338      297.092        725.47723     -31274.48     
    204000   1.2058119      304.14474     -514.78783     -31170.954    
    205000   1.2213584      298.59137      1261.3767     -31215.092    
    206000   1.2117547      300.36797     -228.58705     -31211.047    
    207000   1.2024376      296.70773     -769.40952     -31180.255    
    208000   1.219527       294.11465      971.72733     -31226.664    
    209000   1.2056938      303.81875     -496.2946      -31205.855    
    210000   1.223743       299.62176     -233.16014     -31314.225    
    211000   1.2088152      293.61663     -419.45177     -31218.285    
    212000   1.215223       297.74612     -103.22698     -31156.016    
    213000   1.2172194      290.19764     -65.841924     -31280.877    
    214000   1.1997679      299.54271     -973.42826     -31204.834    
    215000   1.2179369      299.71807      359.17342     -31141.471    
    216000   1.2110965      298.71944     -755.21131     -31179.844    
    217000   1.1999494      298.90355     -171.62496     -31139.407    
    218000   1.2092333      296.60062      1190.2275     -31186.168    
    219000   1.1985046      297.31947      189.60713     -31133.718    
    220000   1.1956968      302.78133      319.26866     -31153.497    
    221000   1.206944       299.32315     -278.95138     -31179.593    
    222000   1.1995499      293.04624     -986.01516     -31185.261    
    223000   1.2156604      297.30633     -125.33811     -31189.463    
    224000   1.2037024      304.10959     -295.24698     -31123.731    
    225000   1.2104081      300.05555      383.68309     -31193.63     
    226000   1.2037029      304.38321     -50.675519     -31165.54     
    227000   1.2050152      290.07043      385.21098     -31214.282    
    228000   1.2127613      295.72672     -781.74932     -31137.858    
    229000   1.2103955      288.93433      202.91962     -31227.326    
    230000   1.2200017      294.88723      1026.8607     -31163.545    
    231000   1.2057711      297.14786     -188.11198     -31233.237    
    232000   1.2101979      295.94508      581.90163     -31162.599    
    233000   1.2111724      297.23551      652.13243     -31211.26     
    234000   1.1973076      295.10915     -787.31237     -31251.562    
    235000   1.2109141      291.00724      254.5889      -31236.122    
    236000   1.2024443      296.45998     -1119.0014     -31165.455    
    237000   1.2098971      296.95936     -369.71578     -31238.434    
    238000   1.2282797      304.08631      1068.6921     -31125.813    
    239000   1.1989239      286.51905     -755.09608     -31119.045    
    240000   1.2176318      296.93335      810.15397     -31174.662    
    241000   1.2054996      296.2869       10.048122     -31254.834    
    242000   1.2020979      288.83427      665.35109     -31195.372    
    243000   1.2031561      298.04547      126.4756      -31179.072    
    244000   1.1924338      289.71634     -667.85156     -31197.352    
    245000   1.2066566      303.84116     -508.99363     -31117.861    
    246000   1.2162235      297.11954     -243.32795     -31158.582    
    247000   1.2076664      302.9168      -176.48894     -31198.285    
    248000   1.2123332      299.55023      649.9581      -31117.145    
    249000   1.216872       292.34296      670.19545     -31223.497    
    250000   1.2060059      300.87353      958.07251     -31120.673    
    251000   1.224399       294.52343      745.58287     -31289.327    
    252000   1.2109595      297.11086     -454.37163     -31254.484    
    253000   1.2172898      302.42209      762.13181     -31210.006    
    254000   1.2122762      305.29338     -142.94088     -31143.691    
    255000   1.2061811      294.11124      484.43985     -31320.55     
    256000   1.2088298      306.22968     -330.47206     -31219.512    
    257000   1.206115       305.29545      3.5717559     -31142.871    
    258000   1.206638       297.47325      970.71172     -31189.606    
    259000   1.2056494      298.28441      84.455609     -31173.384    
    260000   1.2114358      297.31776     -743.6188      -31231.599    
    261000   1.2110265      302.10588     -147.59974     -31176.493    
    262000   1.2041199      297.22921     -719.52209     -31176.777    
    263000   1.2071111      291.23452     -230.32466     -31256.089    
    264000   1.215165       297.33995      391.18645     -31114.03     
    265000   1.2092887      292.18097      663.10703     -31186.686    
    266000   1.2144991      300.90689      139.91341     -31252.096    
    267000   1.2065338      291.0044      -796.19991     -31286.374    
    268000   1.2140409      305.77846      610.51427     -31207.393    
    269000   1.1979242      291.96429     -717.72213     -31169.045    
    270000   1.2249273      291.37643     -210.99945     -31259.082    
    271000   1.2044447      288.79369     -41.182851     -31231.082    
    272000   1.2159028      293.06115      207.69189     -31186.294    
    273000   1.2150864      296.98346      31.273824     -31192.755    
    274000   1.2126112      297.73381     -335.75914     -31222.834    
    275000   1.203823       303.44577     -301.48384     -31114.999    
    276000   1.231615       294.9265       1686.9053     -31204.516    
    277000   1.2082938      302.98466     -481.20767     -31163.906    
    278000   1.2121744      294.42         17.816922     -31234.023    
    279000   1.2050245      294.71736     -191.17896     -31200.118    
    280000   1.2055842      296.22479     -258.82081     -31248.387    
    281000   1.2161557      301.94859      439.45311     -31157.681    
    282000   1.2148568      290.02107     -495.47106     -31313.945    
    283000   1.2014759      300.36855     -1116.0429     -31212.686    
    284000   1.209373       306.89633     -342.4117      -31170.156    
    285000   1.2134212      299.73884     -93.580907     -31259.197    
    286000   1.2122586      296.02897     -254.38862     -31216.909    
    287000   1.2063594      303.17982     -78.087456     -31119.328    
    288000   1.2131866      295.32912     -192.66833     -31145.831    
    289000   1.2072425      302.1036      -335.38405     -31189.87     
    290000   1.2158108      294.45267      370.51247     -31246.009    
    291000   1.2131795      302.5891      -358.50401     -31171.597    
    292000   1.2155444      289.83524     -926.34819     -31279.893    
    293000   1.2123738      299.80648     -1175.1574     -31177.037    
    294000   1.2166834      311.77669      478.50207     -31120.845    
    295000   1.2040875      307.01392     -133.52767     -31167.346    
    296000   1.2092631      299.11458     -206.33071     -31241.982    
    297000   1.208055       293.20238     -433.46749     -31138.809    
    298000   1.2219779      296.99858      466.51877     -31206.374    
    299000   1.2117866      299.77888      220.86902     -31142.279    
    300000   1.216167       298.43016     -149.91211     -31220.542    
    301000   1.2247277      299.24931      1201.6096     -31225.665    
    302000   1.2203132      288.66518     -100.20894     -31249.896    
    303000   1.2112024      294.91327     -505.07679     -31163.709    
    304000   1.213036       305.11944      802.87523     -31142.455    
    305000   1.2070083      289.02428     -598.29959     -31234.03     
    306000   1.2069987      307.91128     -409.06553     -31060.767    
    307000   1.2065756      292.60443     -180.10343     -31243.471    
    308000   1.2172902      306.53999      772.65736     -31103.244    
    309000   1.2133497      299.6334       145.8715      -31120.7      
    310000   1.2043522      301.19859     -371.98566     -31216.929    
    311000   1.2103132      289.72636      52.393811     -31269.24     
    312000   1.2086823      290.75786     -438.32338     -31234.902    
    313000   1.2076766      302.31866     -417.01094     -31225.865    
    314000   1.2002764      291.07264      277.67966     -31227.589    
    315000   1.2072488      294.07001     -185.76954     -31243.494    
    316000   1.2228666      302.23931     -67.739924     -31155.615    
    317000   1.2097325      300.36287     -1150.133      -31138.664    
    318000   1.2231423      293.02924     -2.8788566     -31264.294    
    319000   1.2149197      303.45721     -544.49591     -31262.933    
    320000   1.2156941      300.02672      416.07686     -31190.983    
    321000   1.2012635      303.63874     -1448.6475     -31248.361    
    322000   1.2093378      297.34031     -148.43548     -31254.568    
    323000   1.2214039      303.53447     -363.07129     -31296.332    
    324000   1.2165994      296.32593      178.15891     -31298.144    
    325000   1.2093698      292.91091     -253.47814     -31118.116    
    326000   1.2166365      291.51865     -56.086962     -31155.887    
    327000   1.20437        295.1358       31.6991       -31124.698    
    328000   1.2124149      302.75628     -26.726741     -31094.967    
    329000   1.2082513      301.28287     -714.5059      -31227.297    
    330000   1.2119741      296.02732     -292.21331     -31167.621    
    331000   1.2212445      295.66859      958.60322     -31170.211    
    332000   1.2152288      296.00183     -329.81212     -31301.886    
    333000   1.2125379      289.94404     -674.96811     -31278.09     
    334000   1.2122818      292.10076      399.20161     -31236.191    
    335000   1.2096701      293.4686       19.154331     -31233.114    
    336000   1.2089664      297.85243     -1150.2173     -31231.361    
    337000   1.2096698      304.0839      -238.20857     -31118.038    
    338000   1.2164401      292.48279     -158.95922     -31216.969    
    339000   1.2189178      304.68882      336.39818     -31151.398    
    340000   1.2190191      294.62508     -64.868757     -31192.282    
    341000   1.2100277      301.70166      315.58168     -31137.019    
    342000   1.2141613      305.19771      469.65842     -31236.077    
    343000   1.2123358      294.26264     -639.48596     -31284.812    
    344000   1.2155824      296.31921      320.91122     -31270.959    
    345000   1.2054744      299.65115     -727.72449     -31154.704    
    346000   1.2097491      303.36002     -237.97838     -31125.525    
    347000   1.2126671      293.63489     -579.69044     -31146.215    
    348000   1.2227848      297.50034      276.324       -31224.901    
    349000   1.2164762      306.60521      410.22056     -31010.069    
    350000   1.202092       304.51468     -494.20517     -31081.415    
    351000   1.2146629      295.85328     -25.719501     -31162.963    
    352000   1.2090777      293.4672       2.7129474     -31217.928    
    353000   1.2111296      296.85831     -262.12817     -31245.63     
    354000   1.2055545      294.72519     -594.64804     -31145.763    
    355000   1.2160256      289.71858      837.66621     -31220.552    
    356000   1.1936355      291.88606     -764.49359     -31191.15     
    357000   1.2215095      292.33402      972.01833     -31297.501    
    358000   1.2082947      303.22485     -193.73569     -31244.236    
    359000   1.2228145      293.10107      500.56829     -31309.821    
    360000   1.2146392      300.69285      29.004598     -31185.568    
    361000   1.2136505      299.62936     -170.33998     -31231.482    
    362000   1.216125       307.17883     -894.86779     -31117.262    
    363000   1.2119616      304.66866     -1123.1478     -31181.241    
    364000   1.2223115      291.09693     -229.82247     -31226.021    
    365000   1.2151823      293.82377      432.83366     -31167.059    
    366000   1.2127158      296.5472      -286.99568     -31223.153    
    367000   1.2092564      301.86207      282.66652     -31190.004    
    368000   1.2176095      291.83323      444.54735     -31180.061    
    369000   1.2029396      302.66296     -436.7598      -31092.922    
    370000   1.2164065      301.4075      -272.54303     -31157.732    
    371000   1.2109692      294.76208      698.43647     -31158.581    
    372000   1.2102746      283.64549     -121.68332     -31247.748    
    373000   1.2065136      289.43351     -81.929375     -31152.76     
    374000   1.2170597      300.34373      260.49884     -31208.915    
    375000   1.2153089      306.27454     -371.98793     -31052.434    
    376000   1.2033346      296.97421     -846.81803     -31120.566    
    377000   1.2187792      294.55728     -297.39089     -31156.599    
    378000   1.2156613      294.93637     -17.033103     -31185.872    
    379000   1.2051824      293.89959     -585.47617     -31168.873    
    380000   1.2037747      303.92481     -684.35993     -31094.951    
    381000   1.2104229      290.57454      710.71947     -31323.165    
    382000   1.2015189      295.10211      507.86897     -31170.828    
    383000   1.2175731      291.00947      281.97593     -31237.568    
    384000   1.2067858      293.57534     -89.141977     -31190.576    
    385000   1.2152629      294.45739      408.58804     -31216.974    
    386000   1.2085115      289.83877      361.69381     -31282.859    
    387000   1.2150392      294.58059      0.37851437    -31265.317    
    388000   1.1992533      302.32518     -149.83514     -31086.183    
    389000   1.2137332      300.22183     -159.55767     -31165.973    
    390000   1.1955472      301.56545     -353.99991     -31082.753    
    391000   1.2036553      304.08436     -205.01316     -31214.745    
    392000   1.2074851      302.22675      378.46534     -31210.732    
    393000   1.1956653      295.0229      -439.97142     -31115.852    
    394000   1.2088834      291.87125      53.990979     -31240.072    
    395000   1.2009806      298.5085      -482.03112     -31138.033    
    396000   1.2062182      294.31359      142.07729     -31190.021    
    397000   1.210326       302.92485     -61.472641     -31159.407    
    398000   1.218013       295.39225      351.23853     -31327.611    
    399000   1.1990243      300.58577     -618.14597     -31174.483    
    400000   1.2142433      297.93482     -429.74851     -31249.667    
    401000   1.2040725      305.06543     -458.75073     -31146.681    
    402000   1.2169157      298.46465      922.21672     -31186.851    
    403000   1.201562       292.46831     -1156.4481     -31257.519    
    404000   1.2209952      298.6191       1178.7807     -31179.068    
    405000   1.207756       291.68867     -597.02288     -31203.036    
    406000   1.2161752      293.76119     -1096.1924     -31159.518    
    407000   1.2211112      297.74866      613.93886     -31203.504    
    408000   1.2162906      295.60274      248.57719     -31225.785    
    409000   1.2145708      297.53142      142.7214      -31194.139    
    410000   1.2230955      298.30081      25.759754     -31134.981    
    411000   1.2160785      301.49561      212.11151     -31136.98     
    412000   1.2089169      293.59575      168.79092     -31233.594    
    413000   1.2144083      289.75229      264.67409     -31261.829    
    414000   1.2024156      301.50448     -44.624246     -31163.379    
    415000   1.2132868      294.81156      2.8609341     -31237.631    
    416000   1.2128343      298.57514     -263.47136     -31143.365    
    417000   1.2107654      302.57925     -225.24302     -31111.463    
    418000   1.2078567      294.35413     -334.17305     -31197.211    
    419000   1.2107493      294.33459     -430.68732     -31225.712    
    420000   1.2110175      288.69237     -270.40099     -31224.724    
    421000   1.2139623      291.92078      85.849157     -31197.99     
    422000   1.2127124      290.25764      103.85864     -31315.855    
    423000   1.2119815      297.5987       450.72786     -31202.085    
    424000   1.1975176      296.74532      5.1155635     -31149.294    
    425000   1.2224396      302.99365      1517.1166     -31181.411    
    426000   1.2158995      303.97649      714.87085     -31173.236    
    427000   1.2104346      299.24321     -770.74049     -31217.87     
    428000   1.2248382      288.60226      615.4037      -31262.814    
    429000   1.2087109      295.90022     -251.81721     -31229.732    
    430000   1.197673       303.72492     -711.39526     -31111.562    
    431000   1.2032543      292.60955      525.10064     -31219.14     
    432000   1.2125392      296.29877      224.88367     -31240.157    
    433000   1.2149653      306.51366     -295.78188     -31191.338    
    434000   1.2085166      295.5902      -663.81914     -31320.504    
    435000   1.2191247      299.60016      1010.6629     -31183.832    
    436000   1.2084003      298.35332      452.31756     -31197.869    
    437000   1.215181       290.94101     -141.0502      -31330.184    
    438000   1.2008542      303.30931     -196.09499     -31211.845    
    439000   1.2051673      294.29114     -608.6033      -31230.848    
    440000   1.2033114      294.85152      649.94021     -31172.39     
    441000   1.2108874      296.9236       371.73706     -31217.186    
    442000   1.2063376      299.28619     -612.11055     -31213.636    
    443000   1.2121623      304.8332      -657.40109     -31115.516    
    444000   1.199468       299.05523     -592.61333     -31162.611    
    445000   1.2208308      298.0002       1363.6822     -31225.36     
    446000   1.2132038      297.55238     -526.3755      -31216.241    
    447000   1.2063976      296.85802     -230.44543     -31155.838    
    448000   1.2169603      295.59097      274.83315     -31239.301    
    449000   1.2232679      301.88844      951.26066     -31144.371    
    450000   1.2079315      302.94541     -742.09922     -31214.323    
    451000   1.2142315      291.39739      448.07626     -31259.935    
    452000   1.2140562      305.88338      92.018531     -31048.392    
    453000   1.2049245      276.61013     -757.58473     -31262.849    
    454000   1.2193356      299.91244      71.360628     -31158.34     
    455000   1.2014093      292.86575      79.575252     -31200.309    
    456000   1.2083797      284.57954      980.65281     -31265.723    
    457000   1.2146205      303.60363      588.60799     -31034.212    
    458000   1.1996408      296.51617     -1268.1143     -31248.17     
    459000   1.2071145      302.45888      510.36295     -31205.252    
    460000   1.2166116      300.95114      679.19609     -31258.115    
    461000   1.2096986      291.04937     -111.28674     -31241.462    
    462000   1.2037131      302.80486     -135.18324     -31126.717    
    463000   1.198742       298.86838     -1181.557      -31122.418    
    464000   1.2098474      298.9185       560.00535     -31156.773    
    465000   1.19664        300.3888       198.45657     -31116.145    
    466000   1.2025528      296.24594      133.2033      -31247.699    
    467000   1.2045058      294.09025     -349.04504     -31347.594    
    468000   1.2081746      298.20076     -250.24925     -31239.306    
    469000   1.2043566      305.22443     -542.38219     -31256.158    
    470000   1.2176355      296.69385      149.36267     -31310.043    
    471000   1.2109623      308.24611      58.297366     -31160.314    
    472000   1.2063871      302.63399     -497.83641     -31168.567    
    473000   1.2093727      298.48181     -328.10982     -31159.773    
    474000   1.2107153      293.67275     -596.25158     -31306.776    
    475000   1.2111702      303.61584     -206.70434     -31176.385    
    476000   1.2045786      286.52177     -145.45434     -31282.824    
    477000   1.2142223      300.95802     -494.9229      -31203.546    
    478000   1.223619       298.88812      47.354875     -31242.867    
    479000   1.2265745      298.79082      511.55622     -31221.023    
    480000   1.2070938      301.47947     -979.03035     -31227.704    
    481000   1.2082875      295.10807     -566.54554     -31283.703    
    482000   1.2202523      302.88647      145.58932     -31223.283    
    483000   1.2085908      297.80846     -588.45257     -31183.791    
    484000   1.2142782      297.83844     -303.06882     -31167.079    
    485000   1.2164023      290.68052     -365.78541     -31196.759    
    486000   1.2192818      295.12719      364.88665     -31232.356    
    487000   1.2191671      296.81957      313.46709     -31281.787    
    488000   1.1980414      293.34306     -784.55747     -31203.116    
    489000   1.2073836      293.24234      53.899152     -31289.61     
    490000   1.2169306      290.88258      832.29382     -31267.519    
    491000   1.2109107      303.35933      1017.4348     -31196.397    
    492000   1.2157285      288.01376      147.10306     -31298.03     
    493000   1.2112317      295.97289     -595.6203      -31293.26     
    494000   1.2247259      293.33425      668.36598     -31253.772    
    495000   1.2225061      301.96428     -65.453051     -31210.093    
    496000   1.2089033      293.21579     -761.94588     -31145.488    
    497000   1.2046668      302.359       -509.69444     -31186.808    
    498000   1.2056177      288.0125       624.90597     -31242.2      
    499000   1.2130941      287.76611      156.70533     -31276.946    
    500000   1.207738       306.57167      638.02826     -31134.533    
    501000   1.2040648      292.71884     -141.64321     -31287.318    
    502000   1.2023574      298.69377      172.85931     -31128.646    
    503000   1.210495       303.35598      162.55134     -31166.47     
    504000   1.2099751      293.91654     -1016.3419     -31273.551    
    505000   1.2095576      299.2037       187.28221     -31170.099    
    506000   1.2049062      300.03351      738.05303     -31114.592    
    507000   1.2164911      292.079        773.5354      -31197.348    
    508000   1.2179072      294.15886      630.55181     -31204.5      
    509000   1.2103808      296.0188      -389.74154     -31259.775    
    510000   1.2077833      293.99499     -187.78484     -31215.865    
    511000   1.2157256      301.90663      66.232428     -31192.467    
    512000   1.2133389      295.88326      88.005125     -31197.61     
    513000   1.2236076      290.54671     -76.255692     -31240.296    
    514000   1.2043614      309.46936     -616.78905     -31180.05     
    515000   1.2202711      303.52068      609.49498     -31255.725    
    516000   1.2136788      299.91193      767.4134      -31189.539    
    517000   1.2131447      289.99172      1215.9186     -31225.45     
    518000   1.2009057      291.02923     -952.94445     -31244.57     
    519000   1.2168551      292.53241      96.714057     -31271.829    
    520000   1.200639       291.12355      153.77674     -31275.907    
    521000   1.2128157      300.09068      1.0834647     -31201.443    
    522000   1.2094515      297.72031     -464.04683     -31217.955    
    523000   1.2100389      302.97405     -155.08658     -31147.243    
    524000   1.2139781      297.76152     -65.253509     -31251.195    
    525000   1.2140459      293.00397     -241.65227     -31286.65     
    526000   1.2080047      293.98758     -5.3802889     -31197.864    
    527000   1.2203829      295.58515      578.94558     -31272.212    
    528000   1.2068547      294.67596     -205.10086     -31224.966    
    529000   1.2117546      305.57693     -1081.7864     -31160.533    
    530000   1.2105999      297.34971     -1167.9035     -31283.843    
    531000   1.2119242      298.10409      163.63183     -31207.139    
    532000   1.2095897      296.83984      176.66264     -31188.123    
    533000   1.2141215      298.95917      542.94805     -31161.67     
    534000   1.2113024      297.38841     -866.00033     -31201.187    
    535000   1.2220456      291.55541      289.24904     -31223.145    
    536000   1.2167843      295.28534      230.35969     -31052.406    
    537000   1.2107726      299.75901      499.00197     -31210.557    
    538000   1.1998562      305.87187     -490.60511     -31067.74     
    539000   1.2218838      299.06369      26.034604     -31218.267    
    540000   1.1898481      303.21369     -1107.4341     -31131.522    
    541000   1.2157235      294.4895       158.77479     -31211.961    
    542000   1.1863637      298.75463     -545.56139     -31216.614    
    543000   1.2058621      291.42081      520.57589     -31269.353    
    544000   1.2049455      296.78873      370.15599     -31178.249    
    545000   1.205977       298.44568     -708.31218     -31177.396    
    546000   1.2148903      305.07393      582.18565     -31117.092    
    547000   1.2086285      298.64305      21.371647     -31290.712    
    548000   1.215233       294.98864      205.4407      -31171.301    
    549000   1.1998107      294.43611     -420.1901      -31149.184    
    550000   1.2158768      312.78421      932.66288     -31077.806    
    551000   1.2089992      296.19074      41.089789     -31189.583    
    552000   1.2134322      298.62138      322.34433     -31237.799    
    553000   1.2057997      299.72468      538.13275     -31196.377    
    554000   1.2150347      305.26203      122.1507      -31153.13     
    555000   1.2222808      295.72853      1205.3451     -31211.281    
    556000   1.2042004      293.05545     -516.10015     -31250.03     
    557000   1.2131745      297.39831      200.25757     -31203.205    
    558000   1.2108337      304.2116      -61.893413     -31200.075    
    559000   1.2075535      296.58777     -518.30269     -31207.372    
    560000   1.2073528      297.94169     -517.92089     -31099.121    
    561000   1.2143735      295.83194      650.33178     -31229.963    
    562000   1.2110992      303.35841      412.45251     -31194.277    
    563000   1.2050937      301.21992     -1378.5732     -31235.956    
    564000   1.1998677      293.06222     -939.51075     -31298.549    
    565000   1.2163535      298.89814      1223.0359     -31186.717    
    566000   1.2131026      299.10633     -48.443334     -31116.362    
    567000   1.2070476      298.20346      39.153598     -31152.677    
    568000   1.2063832      293.73018      4.6668752     -31225.771    
    569000   1.2206223      291.93618     -432.74201     -31159.789    
    570000   1.2047096      298.21576     -1265.4422     -31198.82     
    571000   1.2117621      299.60577      639.19807     -31170.262    
    572000   1.217582       298.17629      734.64541     -31209.695    
    573000   1.2016107      303.92021      120.80331     -31151.717    
    574000   1.2039689      303.29501     -229.16818     -31179.613    
    575000   1.207339       296.47181      258.16697     -31201.405    
    576000   1.202564       300.52621     -939.72652     -31078.964    
    577000   1.2060869      301.59994     -69.748843     -31107.042    
    578000   1.2168477      304.83071      77.613541     -31140.079    
    579000   1.2028141      298.17312      278.8876      -31101.308    
    580000   1.2107133      296.05559      233.27753     -31236.961    
    581000   1.208078       310.23615     -281.36445     -31155.598    
    582000   1.2079805      296.25582     -346.91872     -31178.278    
    583000   1.2123279      295.75267      168.22269     -31197.131    
    584000   1.2056118      310.69789     -835.10589     -31169.338    
    585000   1.2063601      295.4903      -760.5093      -31210.582    
    586000   1.2077949      293.95409     -294.21875     -31221.993    
    587000   1.2120973      297.67656     -734.56117     -31246.173    
    588000   1.2068917      300.11306     -1062.6778     -31206.837    
    589000   1.2131045      288.61135     -20.829291     -31350.56     
    590000   1.2169811      290.40154      398.26265     -31378.814    
    591000   1.2076243      307.80943     -1094.8748     -31198.469    
    592000   1.2213711      298.43285      351.10298     -31210.89     
    593000   1.2186604      302.27915     -120.79512     -31154.301    
    594000   1.2112688      298.60677     -135.90819     -31175.649    
    595000   1.217386       304.22116      487.08465     -31189.348    
    596000   1.2210321      296.74919      358.46922     -31308.678    
    597000   1.2106764      296.44212      448.16912     -31171.869    
    598000   1.2066499      286.98241      730.77185     -31253.684    
    599000   1.2158076      296.48265      1153.502      -31233.948    
    600000   1.2040711      297.90442     -673.22817     -31179.758    
    601000   1.2155733      296.36672      291.60085     -31206.767    
    602000   1.2184331      303.71707      214.19523     -31186.852    
    603000   1.2053363      291.24596     -1184.5748     -31112.239    
    604000   1.2227744      296.35958      981.13567     -31175.48     
    605000   1.2085467      288.54392     -491.76879     -31223.482    
    606000   1.2146177      304.33063      335.91583     -31183.349    
    607000   1.2155675      300.05808      101.68818     -31118.684    
    608000   1.2141116      294.89704     -339.68223     -31265.938    
    609000   1.2212391      291.7461       429.86459     -31226.416    
    610000   1.2201576      292.21026      662.40793     -31232.188    
    611000   1.2136614      303.85163     -394.04912     -31213.058    
    612000   1.2191913      306.73589      1075.4439     -31067.218    
    613000   1.2159919      303.58597     -811.62047     -31233.481    
    614000   1.2157476      296.26777      173.21065     -31216.399    
    615000   1.2166788      298.3379      -12.711571     -31227.645    
    616000   1.2009823      303.07279      355.8305      -31097.171    
    617000   1.2142041      298.75969      39.226626     -31230.082    
    618000   1.2144271      296.57703      667.89407     -31291.417    
    619000   1.2107671      301.1425       285.19055     -31185.519    
    620000   1.2099372      293.85259     -191.38048     -31317.154    
    621000   1.2142174      292.97221     -386.08392     -31305.178    
    622000   1.2009404      300.12219     -222.60654     -31270.811    
    623000   1.2014845      305.44733      122.49691     -31136.851    
    624000   1.2066814      297.86846      131.59312     -31270.513    
    625000   1.2081759      303.08831      516.03388     -31145.072    
    626000   1.2070312      293.24801     -169.24274     -31214.394    
    627000   1.2123625      300.7434       224.89256     -31215.209    
    628000   1.2150866      292.17693      57.633983     -31247.589    
    629000   1.2096307      296.17574      116.19969     -31200.491    
    630000   1.2099454      298.31428      346.7704      -31214.291    
    631000   1.2065778      302.03565     -608.7674      -31181.927    
    632000   1.2267783      296.88861      607.56597     -31337.991    
    633000   1.2174001      303.36406      325.01443     -31202.64     
    634000   1.2232136      286.22766      396.09807     -31321.065    
    635000   1.2151963      297.48919      331.05894     -31243.629    
    636000   1.2115387      303.37935     -951.97617     -31144.385    
    637000   1.2076353      298.75617      410.1836      -31090.604    
    638000   1.2153011      300.93886      451.97081     -31194.133    
    639000   1.2185351      302.58274      37.158817     -31110.746    
    640000   1.2116284      292.12746     -327.92199     -31212.186    
    641000   1.212184       302.12029      34.379901     -31229.749    
    642000   1.2116999      294.51346      28.068864     -31155.063    
    643000   1.2159737      298.36362     -175.64037     -31284.823    
    644000   1.2106881      301.33107      66.044945     -31245.75     
    645000   1.2102406      294.72994     -294.22777     -31239.182    
    646000   1.2136025      304.47758     -740.21795     -31166.709    
    647000   1.209407       294.40989     -582.07335     -31180.169    
    648000   1.2112789      301.53764      894.48482     -31211.226    
    649000   1.2090424      298.03323      351.79804     -31131.966    
    650000   1.2111239      293.99801      528.94175     -31135.829    
    651000   1.2040691      290.86301      172.32894     -31142.002    
    652000   1.2202643      299.68317      743.30506     -31195.518    
    653000   1.2120081      297.61591      189.59262     -31184.251    
    654000   1.2077184      301.10084      78.838022     -31149.235    
    655000   1.2106044      295.50642      797.02775     -31177.587    
    656000   1.2060272      309.52616     -598.17661     -31017.84     
    657000   1.2156448      301.06569      105.2384      -31080.438    
    658000   1.2175931      297.24873     -282.38019     -31210.529    
    659000   1.2086342      291.03906     -822.7993      -31220.676    
    660000   1.2100531      297.16564     -208.31669     -31152.497    
    661000   1.2281016      296.84723      122.33663     -31267.138    
    662000   1.2085877      295.68613     -820.00842     -31221.772    
    663000   1.2146324      307.63414      1104.861      -31144.907    
    664000   1.2112299      292.02441     -6.1794016     -31272.113    
    665000   1.2108109      301.54705     -335.63192     -31124.059    
    666000   1.2159255      305.08102      437.17404     -31142.2      
    667000   1.2134264      305.75209     -66.351594     -31058.426    
    668000   1.2068241      290.89879      642.18355     -31168.88     
    669000   1.2109206      293.34156     -14.393971     -31229.751    
    670000   1.2184432      291.20181      475.83588     -31215.74     
    671000   1.2076885      294.52511     -402.76218     -31190.23     
    672000   1.2196245      300.29541      922.62283     -31125.198    
    673000   1.2128938      298.39093      816.31784     -31126.146    
    674000   1.2137451      294.13119      241.47525     -31144.08     
    675000   1.2133034      301.90838      1133.4392     -31092.501    
    676000   1.2118771      293.41137      50.519022     -31168.268    
    677000   1.2141635      304.2228       900.24178     -31053.653    
    678000   1.2026224      297.29872     -482.13779     -31085.144    
    679000   1.2115711      296.59058     -165.25114     -31216.214    
    680000   1.2155952      292.0798      -273.0011      -31324.931    
    681000   1.2166512      295.85306      120.65146     -31134.697    
    682000   1.2156749      295.26397      1037.8745     -31231.441    
    683000   1.2117733      298.21762      12.199461     -31158.751    
    684000   1.2112407      298.46213     -196.99292     -31193.074    
    685000   1.2154229      295.17478      118.04422     -31214.549    
    686000   1.2182725      293.41301      46.805662     -31240.959    
    687000   1.2139578      295.73621     -58.842166     -31215.534    
    688000   1.2073821      287.57015     -86.680379     -31284.974    
    689000   1.2119464      299.4375       327.39887     -31194.195    
    690000   1.1953793      290.58516     -278.56697     -31278.11     
    691000   1.2127901      303.52218      40.424845     -31150.16     
    692000   1.2122715      308.55288     -344.37493     -31091.571    
    693000   1.2201209      296.264       -128.065       -31133.906    
    694000   1.2120743      294.64892      106.80378     -31191.568    
    695000   1.2038273      291.64557     -430.74529     -31242.859    
    696000   1.216024       302.21244      577.15447     -31097.995    
    697000   1.212425       302.8552      -259.68806     -31139.578    
    698000   1.2208152      291.61601      372.085       -31214.399    
    699000   1.2172903      298.64152      1203.6012     -31200.829    
    700000   1.2207408      295.33241      663.12888     -31179.767    
    701000   1.205254       291.71547     -418.51557     -31218.189    
    702000   1.2114805      295.88684     -52.01031      -31209.71     
    703000   1.215641       308.11351      213.27201     -31101.8      
    704000   1.2130349      287.03885      433.00311     -31200.119    
    705000   1.202796       299.83037     -377.72888     -31151.421    
    706000   1.2097264      300.87476      560.14633     -31173.542    
    707000   1.2194384      293.46859      446.1156      -31182.829    
    708000   1.2080092      307.86913     -391.8603      -31071.733    
    709000   1.2207996      293.20196     -153.84438     -31226.734    
    710000   1.2207001      293.82137      510.25231     -31269.019    
    711000   1.2100272      300.27993      219.15995     -31264.44     
    712000   1.2116176      298.67119     -505.68316     -31139.88     
    713000   1.2116332      298.15203      267.89323     -31228.098    
    714000   1.2152448      296.83824      292.62614     -31152.387    
    715000   1.2203052      295.93974     -187.53203     -31241.836    
    716000   1.2281692      299.58638      1234.5491     -31168.615    
    717000   1.2187044      295.97047     -74.524244     -31179.128    
    718000   1.2202892      293.27872      268.09561     -31272.367    
    719000   1.214429       293.6993      -284.08176     -31255.168    
    720000   1.217465       299.11831      525.42279     -31201.453    
    721000   1.2150209      302.14992     -20.650929     -31135.993    
    722000   1.2073359      284.31005     -655.139       -31341.371    
    723000   1.213394       292.92233      8.4463362     -31128.773    
    724000   1.2199338      301.71059      981.66434     -31201.158    
    725000   1.1999276      301.92553     -319.42554     -31104.722    
    726000   1.2123572      303.77875     -593.87171     -31186.088    
    727000   1.2162159      296.71054      715.29407     -31291.231    
    728000   1.2184585      306.7633      -509.58416     -31245.923    
    729000   1.2136544      295.10965     -132.07372     -31228.94     
    730000   1.2185941      294.38737      271.04015     -31277.383    
    731000   1.2124972      291.08687     -165.21186     -31322.943    
    732000   1.2069301      302.23531     -178.4354      -31175.068    
    733000   1.2119288      298.21825      524.53131     -31192.195    
    734000   1.2130801      291.3651       44.453222     -31284.492    
    735000   1.2048907      298.80463     -186.87392     -31142.767    
    736000   1.202053       289.15525      26.149599     -31215.89     
    737000   1.208657       300.08576      163.75848     -31154.282    
    738000   1.211526       295.72518      215.80364     -31186.464    
    739000   1.2085329      290.98909      306.56645     -31288.118    
    740000   1.2041188      292.91788      431.85475     -31162.77     
    741000   1.2041701      301.42396      79.820186     -31142.833    
    742000   1.2055025      299.10939      680.1702      -31187.705    
    743000   1.2152063      309.11675      203.65049     -31088.826    
    744000   1.2035999      293.91733     -205.93031     -31206.652    
    745000   1.2228595      303.28325      245.66947     -31116.742    
    746000   1.2059404      293.10572     -295.12339     -31200.414    
    747000   1.211767       301.88328     -699.03568     -31151.647    
    748000   1.2153619      300.20283      22.227117     -31220.981    
    749000   1.2121475      302.0271      -208.21128     -31154.305    
    750000   1.2208731      298.4728      -508.72878     -31256.914    
    751000   1.1995278      285.60802     -981.27284     -31256.264    
    752000   1.2185868      296.46647      959.69938     -31173.604    
    753000   1.2076651      294.16218      426.5782      -31156.383    
    754000   1.2051565      306.78753     -593.21386     -31180.032    
    755000   1.2107358      297.13344      395.40581     -31217.775    
    756000   1.2062949      293.34569      1147.0757     -31209.476    
    757000   1.2002394      294.22554     -959.14077     -31223.25     
    758000   1.2084928      298.08806     -280.74935     -31231.925    
    759000   1.213072       293.92475      363.09899     -31267.922    
    760000   1.2093739      297.34063     -59.920059     -31251.83     
    761000   1.2047705      297.83479      226.8349      -31180.652    
    762000   1.204779       289.62852     -784.26654     -31198.14     
    763000   1.2049215      296.41565      27.474921     -31133.577    
    764000   1.220871       304.20235      147.15379     -31232.686    
    765000   1.2144834      295.03907      444.55705     -31240.972    
    766000   1.2128393      308.96698      190.76758     -31057.635    
    767000   1.2084759      293.06903     -804.24147     -31213.091    
    768000   1.2140877      300.65364      283.19671     -31122.595    
    769000   1.2137285      293.79146     -500.93474     -31178.12     
    770000   1.2235348      298.93565     -167.74632     -31129.267    
    771000   1.2153658      296.52368     -134.28301     -31140.569    
    772000   1.2114728      299.85404      203.57446     -31101.993    
    773000   1.2189698      310.47046      570.82243     -31118.433    
    774000   1.2089348      296.71631      296.71398     -31174.213    
    775000   1.2159834      294.48178      439.55288     -31225.425    
    776000   1.2037183      305.11905      59.745879     -31136.392    
    777000   1.2123942      292.84489     -149.88134     -31164.288    
    778000   1.2067211      299.10642      186.27827     -31154.194    
    779000   1.2058835      296.62517      26.879672     -31127.747    
    780000   1.2106068      298.88154     -85.929513     -31144.43     
    781000   1.1955397      294.77676     -686.71011     -31205.138    
    782000   1.2145976      301.94751      953.55229     -31236.058    
    783000   1.2021411      292.29038      266.78258     -31185.629    
    784000   1.209581       300.27993      101.93784     -31201.899    
    785000   1.2154877      298.41842      565.25871     -31139.068    
    786000   1.2071604      306.79258     -159.57041     -31091.921    
    787000   1.2294817      299.67584      1316.5883     -31213.561    
    788000   1.2035746      292.70413     -280.22227     -31227.422    
    789000   1.214651       302.39033      334.80181     -31275.515    
    790000   1.2075229      292.69903     -299.79107     -31279.459    
    791000   1.2146077      294.30743      215.16273     -31203.252    
    792000   1.2101261      296.94943      373.44238     -31241.675    
    793000   1.214229       297.40079     -166.29282     -31217.69     
    794000   1.2115038      297.01148      244.08406     -31164.787    
    795000   1.2210559      297.52771      678.59919     -31210.869    
    796000   1.209084       296.36716     -439.3469      -31209.381    
    797000   1.2227586      287.22657      72.237135     -31244.017    
    798000   1.2098233      293.2743       15.521409     -31211.227    
    799000   1.2142813      289.14197      326.19802     -31266.182    
    800000   1.2102167      302.83953      675.31898     -31116.918    
    801000   1.2025567      296.58578     -435.25382     -31262.992    
    802000   1.2176145      288.46026      496.74839     -31268.517    
    803000   1.2139392      293.99504      180.85575     -31311.158    
    804000   1.2063438      293.66036     -201.96317     -31281.888    
    805000   1.2200524      292.37502      255.50333     -31309.385    
    806000   1.2070496      289.87042     -273.24917     -31172.375    
    807000   1.2109433      297.63346     -602.62709     -31238.404    
    808000   1.2088302      294.21797     -591.90206     -31255.898    
    809000   1.2116694      295.68794      6.083393      -31205.537    
    810000   1.2103984      295.64054     -402.33818     -31206.056    
    811000   1.2079375      295.87072      364.21512     -31194.972    
    812000   1.2083831      293.16334      535.7861      -31223.933    
    813000   1.2160444      308.39682      647.52212     -31142.885    
    814000   1.2159238      300.58008     -632.29881     -31175.162    
    815000   1.2060878      309.2327      -84.828869     -31149.607    
    816000   1.2074212      293.23364      541.59766     -31204.241    
    817000   1.2132219      298.71025      331.45939     -31217.008    
    818000   1.2053176      299.95971     -491.96906     -31140.784    
    819000   1.2067674      298.05208     -432.71756     -31204.715    
    820000   1.2169089      301.24246      253.75115     -31193.961    
    821000   1.2050032      298.46019      31.927591     -31196.502    
    822000   1.2046645      291.13012     -655.11848     -31304.253    
    823000   1.206691       305.48624     -123.57761     -31136.873    
    824000   1.2147864      282.43761     -52.208605     -31347.211    
    825000   1.2124555      301.85174     -240.69455     -31182.142    
    826000   1.2091618      291.86568     -227.81597     -31314.238    
    827000   1.2141687      305.33201     -282.3318      -31190.331    
    828000   1.2193798      300.0193       32.854672     -31238.062    
    829000   1.2186097      293.26108      558.57461     -31193.859    
    830000   1.2088606      295.35489     -1151.7468     -31237.693    
    831000   1.2183918      296.01648     -36.004318     -31234.074    
    832000   1.2214124      297.37256      668.17129     -31237.907    
    833000   1.2060123      297.09397     -105.6005      -31175.46     
    834000   1.2116556      299.15161      766.34395     -31210.909    
    835000   1.22157        303.5239       264.59867     -31226.42     
    836000   1.2113711      300.93461     -1372.8436     -31245.49     
    837000   1.2216572      290.31853     -206.11517     -31297.518    
    838000   1.2077703      300.3092       36.830944     -31142.341    
    839000   1.2118068      296.79881     -31.06841      -31182.676    
    840000   1.2093148      296.12188     -2.8449096     -31134.609    
    841000   1.192874       295.19814     -564.05133     -31157.064    
    842000   1.2074428      287.26724     -307.00178     -31326.92     
    843000   1.1969708      299.31574     -273.78096     -31207.014    
    844000   1.2067379      293.88301      406.67471     -31188.365    
    845000   1.2081975      301.95041      201.26894     -31224.258    
    846000   1.2125768      301.40658      521.43984     -31211.267    
    847000   1.2159232      302.81454      708.29306     -31069.496    
    848000   1.2164962      299.64377      500.1402      -31162.703    
    849000   1.2019508      294.25659     -1191.3385     -31248.921    
    850000   1.2060235      297.51881      384.69255     -31209.559    
    851000   1.2083853      308.19932      70.002553     -31076.968    
    852000   1.2132426      299.04501     -506.18577     -31273.956    
    853000   1.2086937      310.04864      382.14521     -31112.327    
    854000   1.2024972      295.70795     -513.60757     -31306.93     
    855000   1.2133576      304.18644     -125.54418     -31207.262    
    856000   1.2118438      297.22815      199.65694     -31225.036    
    857000   1.2020102      298.73236     -12.984486     -31147.992    
    858000   1.218801       289.1656       727.34412     -31241.758    
    859000   1.2057169      307.9599      -464.26356     -31162.037    
    860000   1.2127009      293.16837     -363.45888     -31222.343    
    861000   1.2100997      296.95163      6.3210858     -31157.628    
    862000   1.2145851      295.74995     -468.22493     -31218.389    
    863000   1.21598        292.09102      833.17081     -31294.491    
    864000   1.2130282      302.81742      672.73559     -31171.209    
    865000   1.2021323      291.63247      403.94097     -31141.693    
    866000   1.2189465      298.48962      565.46458     -31256.782    
    867000   1.2008174      293.52245      281.71281     -31095.363    
    868000   1.2230025      298.40787      1188.3135     -31153.035    
    869000   1.2058065      298.60327     -736.04302     -31219.68     
    870000   1.2157082      298.67328     -159.77106     -31209.878    
    871000   1.2155677      290.0722      -64.338494     -31187.252    
    872000   1.2122333      288.72993     -432.22037     -31287.637    
    873000   1.2106395      299.94702      224.02488     -31160.819    
    874000   1.208677       298.0456       128.63761     -31180.244    
    875000   1.2165465      290.13526     -318.78543     -31222.222    
    876000   1.2068464      291.02872      247.57962     -31272.842    
    877000   1.2033437      291.5847      -424.1529      -31241.343    
    878000   1.2215727      298.41541      422.64121     -31096.284    
    879000   1.2084445      302.48326      268.79945     -31094.169    
    880000   1.2052871      291.61316     -235.00919     -31202.315    
    881000   1.2222659      300.47016      1313.3426     -31161.05     
    882000   1.2065536      301.0412       207.47208     -31025.986    
    883000   1.2086505      294.40255      65.394427     -31119.926    
    884000   1.2062032      303.47098      535.09561     -31109.08     
    885000   1.2023985      297.2392      -415.79732     -31132.839    
[...]
   9745000   1.2107835      291.26901     -467.78031     -31281.218    
   9746000   1.2019436      301.29193     -529.35177     -31116.056    
   9747000   1.2144446      301.1351       537.86556     -31182.478    
   9748000   1.1979276      292.87805     -123.31287     -31133.217    
   9749000   1.2138927      294.01168      743.46185     -31221.92     
   9750000   1.2019283      302.76971      141.64281     -31139.145    
   9751000   1.2165791      295.86933     -70.640521     -31275.842    
   9752000   1.2120931      300.88031      199.76957     -31125.241    
   9753000   1.2043688      297.79421      357.64529     -31158.432    
   9754000   1.2193635      296.68086      969.42724     -31163.639    
   9755000   1.2009467      299.95627      159.73663     -31131.117    
   9756000   1.2114416      304.14436      932.76948     -31109.286    
   9757000   1.2248599      294.83055      525.08316     -31217.861    
   9758000   1.213713       293.69741     -239.99806     -31258.174    
   9759000   1.2015464      288.22222     -726.22755     -31192.574    
   9760000   1.2122928      294.64035     -215.90549     -31226.347    
   9761000   1.2114474      303.04636      757.72038     -31214.315    
   9762000   1.2240993      304.75541      1184.3535     -31213.381    
   9763000   1.2042198      297.24121     -394.86197     -31226.889    
   9764000   1.2139814      293.75709      591.49285     -31192.985    
   9765000   1.2111718      302.31789     -552.22712     -31203.725    
   9766000   1.2159013      305.07876     -506.09708     -31159.745    
   9767000   1.2232425      301.45485      640.34228     -31124.636    
   9768000   1.217554       298.63359      120.36586     -31074.601    
   9769000   1.2131495      296.92836     -610.90346     -31156.653    
   9770000   1.2108895      304.381       -201.41747     -31127.126    
   9771000   1.200668       299.33232     -403.48661     -31135.606    
   9772000   1.2133942      293.36119      488.73875     -31187.169    
   9773000   1.2074222      301.56922     -404.58168     -31020.493    
   9774000   1.2169723      283.39362     -370.49019     -31224.781    
   9775000   1.2160392      293.5393      -97.427569     -31221.924    
   9776000   1.2133419      292.38047     -709.15329     -31235.666    
   9777000   1.2002835      293.38577     -56.73685      -31169.723    
   9778000   1.209718       294.51331      262.1515      -31121.533    
   9779000   1.2101982      303.1242       273.25492     -31157.833    
   9780000   1.2007118      299.19946      68.335672     -31177.44     
   9781000   1.2150656      299.57926      180.00865     -31192.104    
   9782000   1.2101936      297.5324       295.53151     -31214.661    
   9783000   1.2005226      308.83628     -937.04713     -31167.704    
   9784000   1.2207585      291.30081      984.67078     -31274.834    
   9785000   1.211761       292.78        -270.06136     -31210.828    
   9786000   1.2212584      299.86826      718.33846     -31141.917    
   9787000   1.2092821      298.45254     -440.24694     -31225.634    
   9788000   1.2169097      287.64994      813.16482     -31201.268    
   9789000   1.2022258      298.83784     -859.5446      -31233.972    
   9790000   1.2075009      302.03185      143.86047     -31167.77     
   9791000   1.195956       300.47977     -105.62944     -31156.775    
   9792000   1.2165856      292.65033      388.0981      -31236.837    
   9793000   1.2098124      295.22413     -38.647878     -31245.448    
   9794000   1.2062966      297.95953     -749.02731     -31204.856    
   9795000   1.2062395      304.18979     -7.9416753     -31159.328    
   9796000   1.2040697      301.69879      549.95645     -31124.236    
   9797000   1.2024206      296.42037      545.7836      -31199.645    
   9798000   1.2129285      304.6496       271.18603     -31179.667    
   9799000   1.2032916      295.67738     -37.051334     -31217.585    
   9800000   1.2137313      298.98105      245.77376     -31135.443    
   9801000   1.2017432      307.50617     -703.52381     -31058.316    
   9802000   1.2202926      287.91966      844.70455     -31386.92     
   9803000   1.2118536      309.2738      -513.99822     -31105.884    
   9804000   1.2067934      291.38934      33.326077     -31256.109    
   9805000   1.2136921      295.50123      146.05477     -31310.002    
   9806000   1.2058254      299.094        312.37246     -31128.501    
   9807000   1.2150355      306.42317      603.48288     -31153.325    
   9808000   1.2178436      293.67862     -232.60347     -31236.609    
   9809000   1.2078959      283.74751     -390.39239     -31271.017    
   9810000   1.2197848      301.05379      92.248506     -31174.107    
   9811000   1.2065741      301.08248      62.29947      -31199.342    
   9812000   1.2161314      303.42149      387.43852     -31207.017    
   9813000   1.2102265      295.6325      -616.21043     -31234.174    
   9814000   1.2152067      291.19775     -135.42081     -31291.315    
   9815000   1.2122892      294.92791     -407.13389     -31208.459    
   9816000   1.2154662      293.24437     -498.0076      -31222.969    
   9817000   1.2199508      301.8169       118.8592      -31192.269    
   9818000   1.2145158      293.71808     -397.28778     -31237.656    
   9819000   1.2111282      298.74712     -785.56831     -31218.245    
   9820000   1.2171594      308.42325      129.26473     -31159.449    
   9821000   1.2093565      301.68658     -532.37804     -31221.411    
   9822000   1.2128141      293.29699     -598.29685     -31248.36     
   9823000   1.2176493      294.39544     -488.41095     -31170.955    
   9824000   1.21303        290.72765      250.78316     -31177.88     
   9825000   1.2131139      293.36203      536.75219     -31202.861    
   9826000   1.2033175      301.94225      926.80677     -31123.139    
   9827000   1.2049864      298.78334      285.05454     -31181.545    
   9828000   1.2151191      297.11031      221.60647     -31213.429    
   9829000   1.209293       287.36545      299.48629     -31221.147    
   9830000   1.2062996      294.51868     -159.71197     -31298.635    
   9831000   1.2094432      295.35412      724.36661     -31196.05     
   9832000   1.207189       294.1044       460.01596     -31243.564    
   9833000   1.2025928      310.59152     -713.21191     -31067.548    
   9834000   1.2016918      294.18528     -11.065376     -31219.256    
   9835000   1.210042       300.16964      995.77427     -31166.986    
   9836000   1.1980791      296.60563     -463.20733     -31191.204    
   9837000   1.2168992      302.27518      205.44227     -31141.759    
   9838000   1.1936917      296.32128     -1321.9275     -31182.45     
   9839000   1.214955       291.38175     -197.70811     -31288.424    
   9840000   1.2042036      299.95652      247.58221     -31229.616    
   9841000   1.2114107      293.61356      452.48018     -31241.41     
   9842000   1.2114679      298.32385     -68.504604     -31166.523    
   9843000   1.1974235      291.60304     -696.64208     -31180.928    
   9844000   1.2191831      291.01148      1097.2907     -31197.274    
   9845000   1.2122675      295.96448     -475.51731     -31253.673    
   9846000   1.2029751      297.06669     -840.75951     -31134.124    
   9847000   1.2250452      304.48742      290.17734     -31234.62     
   9848000   1.2213435      301.46688     -593.14204     -31201.596    
   9849000   1.2018626      295.35246     -553.86284     -31220.921    
   9850000   1.2115512      311.27575     -58.476321     -31069.449    
   9851000   1.2051298      297.75463     -938.68125     -31224.668    
   9852000   1.2186523      296.14035      593.50385     -31177.064    
   9853000   1.217293       295.64641      86.19317      -31230.777    
   9854000   1.2072357      295.01218     -637.88114     -31147.427    
   9855000   1.2147433      293.62698      1061.0332     -31247.81     
   9856000   1.2095691      302.2674       106.64709     -31221.002    
   9857000   1.2189216      298.21563      257.09754     -31231.949    
   9858000   1.2162751      294.91999      396.76131     -31213.94     
   9859000   1.212654       297.65116     -347.84907     -31166.106    
   9860000   1.206935       296.83691     -572.89779     -31189.912    
   9861000   1.2178465      301.4993       62.929208     -31190.463    
   9862000   1.2123253      295.48578      1104.6659     -31209.321    
   9863000   1.2068909      292.59227      644.27747     -31212.287    
   9864000   1.2134018      299.34633     -498.64912     -31134.478    
   9865000   1.2172731      294.43002      142.5581      -31277.585    
   9866000   1.2196686      299.38469     -859.45828     -31218.552    
   9867000   1.2200981      293.45823     -196.12762     -31180.512    
   9868000   1.2281018      300.76671      222.13707     -31272.425    
   9869000   1.2131605      297.25342     -671.03209     -31199.276    
   9870000   1.2180815      305.51167      1310.9464     -31152.972    
   9871000   1.2118844      304.05947      199.11309     -31144.185    
   9872000   1.2131636      290.49037     -479.41004     -31305.387    
   9873000   1.2065812      295.27534      839.40379     -31170.691    
   9874000   1.2185986      289.63809      53.496264     -31290.87     
   9875000   1.2135251      299.94331      140.85384     -31209.3      
   9876000   1.2128573      300.11748     -278.26767     -31235.745    
   9877000   1.2094975      304.25619     -347.47632     -31169.282    
   9878000   1.2230566      302.45703      796.37397     -31239.297    
   9879000   1.2166301      301.79461      312.88387     -31145.512    
   9880000   1.2115959      299.9857      -314.51841     -31136.262    
   9881000   1.2138932      293.81628     -141.50145     -31250.408    
   9882000   1.2122166      300.31822      433.24061     -31166.042    
   9883000   1.2119418      299.45756     -78.164869     -31210.335    
   9884000   1.2081186      300.10071      269.18486     -31223.418    
   9885000   1.2123339      289.09685     -514.93102     -31222.539    
   9886000   1.2088825      293.77008      292.32594     -31161.336    
   9887000   1.210147       300.2106      -312.95618     -31205.49     
   9888000   1.2063248      289.47922     -482.70071     -31192.044    
   9889000   1.2174766      298.54425      1019.4343     -31178.804    
   9890000   1.1999473      298.55282     -121.83839     -31188.231    
   9891000   1.2144119      299.35593      255.97832     -31267.395    
   9892000   1.2077658      306.08715      286.50544     -31105.011    
   9893000   1.2168195      303.73577      307.75062     -31107.5      
   9894000   1.2137091      296.2643      -395.23611     -31209.379    
   9895000   1.2166116      299.82316     -887.17012     -31224.714    
   9896000   1.2184172      298.97074      1019.8316     -31170.191    
   9897000   1.2133615      306.22263      6.3258126     -31189.089    
   9898000   1.2230033      295.82221      1348.9222     -31319.908    
   9899000   1.2095174      295.60318     -648.70725     -31257.091    
   9900000   1.2126424      299.49649     -19.759624     -31188.237    
   9901000   1.2096256      293.99042      497.36398     -31240.985    
   9902000   1.2115721      299.77022     -592.76092     -31235.374    
   9903000   1.2159603      300.32151      374.66627     -31179.905    
   9904000   1.2097952      300.54772      159.50955     -31228.573    
   9905000   1.2159761      291.23257      1256.941      -31153.245    
   9906000   1.2141913      297.43268     -299.9698      -31186.593    
   9907000   1.2106961      301.24037     -640.40858     -31210.389    
   9908000   1.2159211      292.49874      160.88276     -31271.177    
   9909000   1.2092507      297.73424     -26.589824     -31155.698    
   9910000   1.2121276      305.7529      -288.74805     -31184.328    
   9911000   1.2217515      297.65469      1159.4507     -31223.489    
   9912000   1.2080253      293.4063      -823.99448     -31126.232    
   9913000   1.2106793      297.10832      128.86535     -31164.728    
   9914000   1.2145674      293.86095      627.10127     -31269.516    
   9915000   1.2088352      297.60218     -690.6101      -31197.835    
   9916000   1.2114022      300.28134      98.480528     -31204.679    
   9917000   1.2171955      288.86403     -519.63325     -31354.708    
   9918000   1.2059441      295.20464     -876.82516     -31176.785    
   9919000   1.214503       294.06763     -289.98876     -31253.689    
   9920000   1.2035425      294.73243     -366.00673     -31173.144    
   9921000   1.2064836      297.16299      260.88758     -31211.581    
   9922000   1.2141522      301.89236      140.45925     -31118.754    
   9923000   1.2094148      302.00953      7.0980782     -31196.153    
   9924000   1.2183979      293.87646      745.40189     -31191.69     
   9925000   1.2158929      302.36144     -430.23015     -31087.143    
   9926000   1.2156484      290.18206      781.1538      -31224.015    
   9927000   1.2153254      295.56526      303.43515     -31255.232    
   9928000   1.2171494      294.62686      473.42515     -31320.847    
   9929000   1.2088632      295.84201     -37.160116     -31136.722    
   9930000   1.2173239      298.78157      404.57981     -31140.913    
   9931000   1.2182035      299.57953      290.73287     -31182.44     
   9932000   1.2132309      288.3162      -367.66953     -31223.18     
   9933000   1.2123328      299.50082     -8.1606794     -31187.05     
   9934000   1.2194206      310.63381      483.82074     -31106.864    
   9935000   1.2067791      296.81845     -468.67143     -31215.107    
   9936000   1.2120179      290.10275     -87.350542     -31209.006    
   9937000   1.2064287      299.24228      89.562928     -31156.836    
   9938000   1.2136662      294.62036     -18.44417      -31160.258    
   9939000   1.2074171      305.35548     -298.01281     -31204.766    
   9940000   1.2200327      305.51632      1260.8172     -31105.938    
   9941000   1.2089716      299.92874      209.6913      -31225.914    
   9942000   1.2189049      299.94177     -2.8807376     -31197.437    
   9943000   1.2103188      289.6968       8.3771593     -31293.544    
   9944000   1.2127931      291.85207     -111.78036     -31265.884    
   9945000   1.211914       295.98487      113.85498     -31224.056    
   9946000   1.2089478      299.38438      26.410105     -31270.221    
   9947000   1.2251938      305.08168      305.83672     -31223.846    
   9948000   1.2231186      299.549       -123.04641     -31202.044    
   9949000   1.2162005      292.68517     -283.06297     -31190.166    
   9950000   1.2132145      306.65531     -1073.2859     -31165.77     
   9951000   1.2186264      297.73268     -367.22645     -31213.413    
   9952000   1.2089842      300.42142     -374.70251     -31165.541    
   9953000   1.2124604      290.40226      516.76681     -31264.589    
   9954000   1.2044993      304.72531      522.27905     -31178.95     
   9955000   1.2031305      301.2784      -1428.8984     -31159.621    
   9956000   1.2202198      303.66967      489.05559     -31136.44     
   9957000   1.2152602      308.52118     -194.60333     -31171.948    
   9958000   1.2111424      293.31945     -264.60529     -31197.399    
   9959000   1.2186724      299.13012      312.64572     -31142.509    
   9960000   1.2091512      304.81242      357.392       -31086.301    
   9961000   1.2104288      291.34165     -451.68932     -31258.472    
   9962000   1.2078348      295.6851       62.414386     -31187.926    
   9963000   1.2039396      294.54968     -1061.7204     -31221.706    
   9964000   1.2176026      297.01555      4.1706709     -31229.316    
   9965000   1.2073959      300.83655     -623.98787     -31230.646    
   9966000   1.217518       298.72532      181.96084     -31092.145    
   9967000   1.2093652      289.68591      387.42545     -31172.173    
   9968000   1.1985316      298.17089     -983.90927     -31127.641    
   9969000   1.2134818      289.0344       166.08135     -31269.628    
   9970000   1.2243806      298.81578      348.19246     -31123.519    
   9971000   1.2011062      290.57843     -352.40679     -31224.27     
   9972000   1.2148976      297.84814      413.32605     -31103.938    
   9973000   1.2112113      284.95818      778.88365     -31321.116    
   9974000   1.2103633      304.07296     -77.007008     -31102.468    
   9975000   1.2054142      295.21865     -162.51162     -31243.959    
   9976000   1.2108159      305.61326      250.52205     -31117.002    
   9977000   1.2103011      291.25959      340.47286     -31325.222    
   9978000   1.205312       301.49192     -592.06165     -31196.592    
   9979000   1.2259333      299.9581       785.72741     -31212.945    
   9980000   1.2032616      296.8085      -915.15105     -31181.362    
   9981000   1.2138387      291.0163      -370.42233     -31262.88     
   9982000   1.2136956      300.57132      388.46574     -31162.702    
   9983000   1.2144663      296.86842      835.55726     -31094.971    
   9984000   1.2199579      302.75012      295.02726     -31095.055    
   9985000   1.2127329      301.44281     -457.17319     -31129.948    
   9986000   1.216817       296.87299      43.550421     -31183.734    
   9987000   1.2082231      298.01806     -44.256533     -31103.904    
   9988000   1.2021563      299.57466     -226.33631     -31119.675    
   9989000   1.2203089      295.96641      886.10983     -31150.847    
   9990000   1.2153557      294.22427      169.17172     -31237.113    
   9991000   1.2217097      305.96557      377.08782     -31187.909    
   9992000   1.2090941      298.41479      374.86621     -31152.735    
   9993000   1.2196739      300.0392       289.95128     -31187.384    
   9994000   1.2250197      302.54169      148.66063     -31203.02     
   9995000   1.2039545      299.93236     -145.38617     -31140.859    
   9996000   1.2209132      292.97881      284.24085     -31268.772    
   9997000   1.2040504      295.93555     -177.9597      -31156.414    
   9998000   1.2173257      295.40934      61.497697     -31202.597    
   9999000   1.2169183      295.16597     -285.38855     -31281.738    
  10000000   1.2191632      295.63623     -124.98058     -31218.552    
Loop time of 33681.2 on 32 procs for 10000000 steps with 3486 atoms

Performance: 25.652 ns/day, 0.936 hours/ns, 296.901 timesteps/s
99.6% CPU use with 32 MPI tasks x no OpenMP threads

MPI task timing breakdown:
Section |  min time  |  avg time  |  max time  |%varavg| %total
---------------------------------------------------------------
Pair    | 12378      | 13720      | 14821      | 587.4 | 40.74
Bond    | 42.947     | 47.312     | 49.774     |  36.2 |  0.14
Kspace  | 6342.7     | 7376.8     | 8642.4     | 733.8 | 21.90
Neigh   | 1804.9     | 1924.9     | 2088       | 263.0 |  5.72
Comm    | 1704.5     | 1998.6     | 2196.2     | 417.4 |  5.93
Output  | 0.50053    | 4.9445     | 142.61     |1111.9 |  0.01
Modify  | 7800.5     | 8165.2     | 8364.2     | 158.6 | 24.24
Other   |            | 443        |            |       |  1.32

Nlocal:        108.938 ave         121 max          95 min
Histogram: 1 0 2 7 5 6 5 1 2 3
Nghost:        4522.22 ave        4553 max        4502 min
Histogram: 4 4 6 4 4 3 3 0 2 2
Neighs:        45419.9 ave       53558 max       38244 min
Histogram: 1 5 0 9 6 2 3 3 2 1

Total # of neighbors = 1453436
Ave neighs/atom = 416.93517
Ave special neighs/atom = 2.0929432
Neighbor list builds = 1387218
Dangerous builds = 0
ERROR: Cannot reset timestep with active dump - must undump first (../output.cpp:637)
Last command: reset_timestep 0
srun: error: cmp043: tasks 0-31: Exited with exit code 1
srun: launch/slurm: _step_signal: Terminating StepId=2016061.0
