3486
 Atoms. Timestep: 0
Ow 17.4785 14.5163 23.3214
H 16.9149 15.1195 23.8058
H 17.2012 13.6462 23.608
Ow 31.9773 4.84609 3.15966
H 31.4156 4.21382 2.71143
H 31.623 4.8947 4.0475
Ow 23.0783 10.9887 17.0761
H 23.8546 11.0982 16.5271
H 22.356 10.8968 16.4548
Ow 25.0469 12.1246 1.84495
H 24.7136 12.8633 2.35416
H 25.6114 12.5243 1.18341
Ow 14.4385 1.09924 13.9199
H 13.8319 0.988038 13.1879
H 14.0749 1.82672 14.4246
Ow 29.9946 22.2894 21.1356
H 29.1377 22.1001 21.5178
H 29.8026 22.8409 20.3772
Ow 3.80159 25.7307 11.5716
H 3.95249 24.8237 11.8376
H 3.52693 25.67 10.6567
Ow 16.3523 12.4536 26.4957
H 16.3926 13.4088 26.4518
H 16.663 12.2406 27.3759
Ow 1.55046 2.17665 13.3432
H 1.22943 3.01746 13.0174
H 1.00869 1.52433 12.8988
Ow 18.7387 6.92704 15.3221
H 18.7058 6.2351 15.9825
H 19.6713 7.03883 15.1379
Ow 10.7367 27.79 0.611534
H 10.9775 27.3964 31.9648
H 10.7557 27.0623 1.23296
Ow 1.26577 13.3957 19.5678
H 1.32762 12.4434 19.6431
H 2.15822 13.7069 19.7189
Ow 30.5339 20.1486 5.93226
H 31.4858 20.1989 5.84494
H 30.3885 19.9299 6.85271
Ow 23.8043 8.03158 3.21126
H 23.6457 8.95117 3.4226
H 24.2442 7.6797 3.9851
Ow 32.4558 32.4213 12.0379
H 0.898766 32.3769 11.3225
H 31.7375 0.756218 11.6881
Ow 7.12105 14.0552 17.5405
H 7.54104 13.8462 16.7063
H 7.63873 14.7778 17.8955
Ow 15.469 10.0671 9.96381
H 15.723 10.0747 9.04102
H 16.1928 10.5007 10.4156
Ow 21.1012 21.4461 20.0012
H 20.9735 21.6396 20.9298
H 20.2563 21.6427 19.5966
Ow 6.60557 10.9942 30.4513
H 6.46036 10.0533 30.5509
H 7.52772 11.0702 30.2066
Ow 16.1369 19.9637 19.886
H 15.5324 20.0509 20.623
H 16.9008 20.4818 20.1397
Ow 12.8963 32.0693 17.3448
H 12.1408 32.1457 16.762
H 13.6317 32.3993 16.8287
Ow 0.921302 7.25604 29.294
H 0.978362 6.42855 28.8164
H 1.67158 7.24239 29.8882
Ow 30.5602 12.6226 32.0032
H 30.8753 12.9814 0.64123
H 30.4475 11.6875 32.1737
Ow 16.2326 29.9037 16.9633
H 15.6225 29.6273 17.647
H 15.9911 30.8113 16.7788
Ow 4.35466 6.5039 18.3573
H 4.68246 5.82906 18.9516
H 3.47666 6.20707 18.118
Ow 12.612 19.6829 20.103
H 11.8853 19.0759 20.2428
H 12.8884 19.5225 19.2007
Ow 30.4627 30.0549 2.38445
H 29.822 29.3557 2.51388
H 29.9867 30.7301 1.90097
Ow 0.42175 18.5557 30.9846
H 0.601227 19.1002 30.2182
H 32.0603 19.1021 31.5434
Ow 0.62353 26.0786 28.5088
H 1.49079 26.4835 28.4966
H 0.482304 25.7867 27.6082
Ow 10.1808 15.7851 10.0527
H 9.80357 16.5744 10.441
H 9.52018 15.1076 10.1966
Ow 19.1612 20.896 11.0399
H 18.3633 20.5964 10.6043
H 19.7374 20.1317 11.0376
Ow 28.1924 20.9457 2.24339
H 27.4409 20.3562 2.30612
H 28.3308 21.2543 3.13882
Ow 13.3571 8.17499 8.62936
H 13.4646 9.05795 8.27613
H 12.7427 8.27982 9.35562
Ow 18.7524 32.0533 21.1786
H 18.7591 31.1035 21.2972
H 19.0512 32.1848 20.2788
Ow 8.68561 21.0845 4.8684
H 8.46371 21.7933 4.2646
H 9.35556 21.458 5.44098
Ow 1.53605 5.22777 27.6425
H 1.07349 4.39784 27.5267
H 2.25073 5.02216 28.245
Ow 0.340489 25.8547 31.2466
H 0.485303 26.0678 30.3249
H 31.9968 26.5757 31.5788
Ow 21.0215 15.7077 21.2483
H 20.6349 15.4156 22.0737
H 20.5783 15.1872 20.5783
Ow 3.20063 19.5018 7.33258
H 3.07018 20.4499 7.34957
H 2.83986 19.195 8.16438
Ow 23.6832 10.749 26.9306
H 24.5025 10.2553 26.9662
H 23.0094 10.1135 27.172
Ow 13.5222 22.2099 18.2546
H 12.7544 22.372 17.7065
H 13.1627 22.0215 19.1215
Ow 30.2711 28.415 20.2532
H 30.6738 29.1921 20.6409
H 30.4457 27.7151 20.8823
Ow 14.5375 5.56107 9.38638
H 14.5915 4.73817 9.87231
H 14.7461 6.23554 10.0327
Ow 18.9212 30.0221 16.8494
H 19.2176 29.1517 16.5833
H 17.9658 29.9673 16.8274
Ow 0.755225 23.7431 10.0116
H 1.32589 23.5866 9.25929
H 0.381514 24.6105 9.85306
Ow 3.52338 25.3887 15.1004
H 4.22804 24.794 14.8437
H 2.89381 24.8315 15.5581
Ow 2.76082 10.5724 15.2689
H 2.71847 10.5221 16.2238
H 3.60007 10.1705 15.0444
Ow 25.5937 3.11682 28.794
H 25.7547 2.27206 29.2142
H 25.9032 3.00081 27.8957
Ow 29.3834 31.0455 30.1087
H 30.0633 31.6837 29.8926
H 29.8043 30.195 29.984
Ow 27.3158 10.8814 24.0126
H 27.77 11.5966 23.5672
H 27.3982 11.0878 24.9438
Ow 0.623958 17.9793 6.8759
H 32.3161 17.8833 7.68648
H 32.1825 17.7981 6.18096
Ow 23.7988 4.44198 24.1096
H 24.5338 5.05448 24.1361
H 23.0795 4.9466 23.7299
Ow 6.56814 18.4946 19.5997
H 5.78061 18.1769 19.1581
H 6.24162 18.9415 20.3806
Ow 7.0916 21.2071 7.46793
H 6.66654 22.059 7.36922
H 7.98455 21.3465 7.15272
Ow 16.2963 24.7844 15.5933
H 16.4429 23.8732 15.8463
H 15.3481 24.8531 15.4823
Ow 6.85324 17.1684 23.0068
H 6.41993 17.9298 22.6213
H 6.74181 16.4744 22.3572
Ow 17.2837 19.9195 26.8992
H 17.1125 19.2285 26.2593
H 18.2382 19.9742 26.9437
Ow 22.5863 15.4227 30.5033
H 22.9994 16.2861 30.4919
H 21.6723 15.5968 30.7279
Ow 31.6267 1.53791 0.405742
H 31.0668 0.778534 32.4367
H 31.507 2.09209 31.8266
Ow 25.89 19.4593 17.9542
H 26.7038 19.3667 18.4495
H 25.2378 19.7093 18.6087
Ow 16.4118 25.8959 1.27766
H 15.4597 25.8457 1.19319
H 16.7195 25.0178 1.05355
Ow 23.3066 27.4462 29.9658
H 22.4944 27.1676 29.5428
H 23.0469 27.672 30.8589
Ow 24.994 26.0127 14.2534
H 25.369 25.1332 14.2094
H 24.125 25.8844 14.6336
Ow 17.0503 11.2193 28.872
H 16.5196 10.4975 29.2091
H 17.2138 11.7736 29.635
Ow 27.0427 16.3444 31.3442
H 26.6807 16.5028 30.4729
H 27.7309 15.6941 31.2035
Ow 14.5591 30.2632 20.9941
H 14.1048 31.1055 21.0014
H 14.5087 29.9711 20.0839
Ow 4.80877 27.2187 20.5017
H 4.3597 26.4049 20.2732
H 4.84402 27.7116 19.6819
Ow 27.5707 13.7559 25.417
H 28.0117 13.0231 25.8466
H 28.0351 14.5323 25.7299
Ow 13.6468 0.603742 20.8378
H 13.6341 1.25447 21.5397
H 14.3206 0.915551 20.2338
Ow 27.8986 21.2982 30.0026
H 27.8423 21.4506 29.0594
H 28.4411 22.0157 30.3297
Ow 6.08984 10.121 25.9184
H 6.87367 9.92097 25.4068
H 6.20833 9.63973 26.7372
Ow 21.919 15.4521 4.54961
H 21.6661 16.179 3.98045
H 21.6555 15.7311 5.42648
Ow 26.3098 17.9998 25.1661
H 26.0558 18.8918 24.9295
H 26.5232 17.5817 24.3322
Ow 4.86704 10.9459 3.32952
H 4.61489 10.0276 3.23304
H 5.07166 11.0422 4.25958
Ow 23.2717 19.2773 27.1148
H 22.9594 19.8584 26.4213
H 23.9012 19.8058 27.6052
Ow 22.3698 19.7594 13.6281
H 22.9388 20.4608 13.3112
H 22.6136 19.6495 14.5472
Ow 23.3346 26.9706 10.6597
H 22.5953 26.7466 11.2248
H 22.9316 27.309 9.86014
Ow 16.8094 18.2215 11.7757
H 17.0261 17.2974 11.652
H 16.9235 18.3713 12.7141
Ow 29.1955 31.8372 0.764599
H 29.1857 31.5973 32.0298
H 28.5166 0.31495 0.845887
Ow 15.9471 6.02582 14.4832
H 15.0566 6.13461 14.1493
H 16.1862 5.13105 14.2417
Ow 24.036 5.25101 7.54656
H 23.4854 5.84055 8.06182
H 23.5497 4.42692 7.52406
Ow 1.24952 22.4849 23.8104
H 1.76513 22.7895 24.5571
H 1.84932 22.5379 23.0664
Ow 27.4863 31.1879 13.1327
H 28.124 31.8916 13.013
H 27.9536 30.3939 12.8733
Ow 2.47468 18.5899 4.38277
H 2.80361 18.92 3.54673
H 2.68892 17.657 4.37362
Ow 10.4235 6.04875 20.9538
H 11.1767 6.05001 21.5443
H 9.6667 6.15629 21.5298
Ow 2.15912 4.33847 4.51614
H 1.35198 4.57171 4.05756
H 2.78606 5.0137 4.25699
Ow 15.9321 21.4524 6.65641
H 16.3696 22.2352 6.99101
H 15.1718 21.3399 7.22697
Ow 25.7401 23.867 19.9963
H 25.7315 23.428 19.1458
H 26.023 23.1913 20.6123
Ow 14.9992 8.67149 21.8574
H 14.9832 8.18193 22.68
H 15.9081 8.95696 21.7655
Ow 3.20673 6.42198 10.8482
H 2.60867 5.93142 11.412
H 2.66096 7.10233 10.4539
Ow 9.6405 19.9413 24.4848
H 9.52941 20.3697 23.6362
H 9.55094 19.0073 24.2959
Ow 31.6432 19.2569 15.5065
H 30.8135 19.7254 15.4161
H 31.4548 18.3723 15.1933
Ow 3.98967 4.75698 25.4713
H 3.82087 3.81531 25.4385
H 4.20552 4.93025 26.3876
Ow 1.67054 26.3269 18.5998
H 2.34166 25.7382 18.9455
H 0.852604 25.8381 18.6905
Ow 19.2192 2.56735 10.3574
H 18.4729 2.33359 10.9092
H 19.6647 1.73654 10.1918
Ow 16.4359 19.8421 17.0601
H 16.2218 19.9998 17.9796
H 17.0597 20.5329 16.8371
Ow 22.1576 3.6135 28.8931
H 23.1136 3.64121 28.9326
H 21.9619 3.36232 27.9904
Ow 23.8195 28.46 16.0853
H 24.4986 29.0658 15.7886
H 23.2584 28.335 15.32
Ow 25.1438 7.09055 20.2161
H 24.999 6.30923 19.6825
H 25.5268 7.72634 19.6118
Ow 22.2737 8.12206 24.7938
H 21.8398 8.61403 24.0973
H 22.2705 8.71525 25.5451
Ow 25.8079 28.7458 10.1753
H 25.7585 29.5704 9.69179
H 26.6962 28.427 10.0159
Ow 12.5945 17.3242 22.5493
H 12.9446 17.0051 23.381
H 11.682 17.5411 22.7404
Ow 2.92287 0.499007 23.2626
H 3.72343 0.957812 23.5171
H 2.32888 0.624421 24.0027
Ow 4.64605 3.80968 6.38822
H 5.5009 3.99808 6.00107
H 4.45067 4.5783 6.92415
Ow 14.94 2.1642 3.21137
H 14.6984 1.2392 3.16503
H 14.6577 2.44263 4.08253
Ow 9.28999 27.7539 28.4248
H 8.4543 27.2992 28.5295
H 9.84083 27.4086 29.1272
Ow 26.5322 1.03302 30.3113
H 27.397 1.41129 30.4697
H 26.6826 0.359852 29.6477
Ow 30.3771 6.27687 27.7191
H 30.4851 6.01896 28.6345
H 30.0129 7.16108 27.7602
Ow 29.726 9.66311 23.1032
H 28.8064 9.90249 23.2184
H 29.762 9.26001 22.2358
Ow 10.3966 16.7659 16.2117
H 9.99795 16.0788 15.6776
H 9.85482 17.5386 16.0519
Ow 2.74793 11.0709 26.0068
H 2.61906 10.8234 25.0912
H 3.58024 11.5434 26.0126
Ow 23.9648 20.4483 20.3599
H 24.2023 21.1691 20.9432
H 23.7552 19.7228 20.948
Ow 23.575 9.29155 21.5552
H 22.8329 9.70696 21.9944
H 23.9589 9.98784 21.0223
Ow 24.1936 29.295 23.0007
H 23.8557 28.6509 23.6229
H 23.7995 29.0498 22.1636
Ow 2.02086 27.5464 16.1095
H 1.81834 27.1724 16.9669
H 2.49142 26.8515 15.6492
Ow 6.91036 27.045 25.9185
H 7.04216 26.1297 26.1654
H 6.08212 27.2882 26.332
Ow 1.77329 20.3942 13.6153
H 2.64103 20.0023 13.7124
H 1.21956 19.905 14.2237
Ow 3.15467 19.3603 21.6694
H 3.04666 18.8988 20.8379
H 2.86663 20.2546 21.4867
Ow 15.5629 32.3755 16.2128
H 15.1182 0.491236 15.4229
H 15.5611 0.940491 16.7989
Ow 22.0695 5.27644 12.8162
H 21.7893 6.10179 12.4207
H 22.4111 5.52562 13.6749
Ow 28.4525 7.93657 10.8429
H 28.8131 7.61545 11.6693
H 29.1127 8.54678 10.514
Ow 7.43808 10.237 2.00992
H 6.7742 9.8161 2.55608
H 6.94564 10.6126 1.28014
Ow 3.01539 19.4872 1.86516
H 2.8977 20.1801 1.21549
H 3.24392 18.7127 1.35123
Ow 12.3612 3.30854 2.52084
H 11.9289 2.45935 2.61093
H 11.6433 3.93483 2.42908
Ow 3.08718 17.0458 31.8296
H 3.82446 17.1446 32.4317
H 2.62373 16.2688 32.143
Ow 7.7601 3.07939 20.5069
H 7.22315 3.04022 21.2983
H 7.27589 2.56311 19.8626
Ow 2.97161 15.7884 3.19636
H 2.82695 15.19 3.92927
H 3.71424 15.4132 2.7232
Ow 6.21212 7.68237 16.2584
H 6.88341 8.24192 16.6479
H 5.88291 7.15816 16.9887
Ow 3.20255 16.3962 11.4685
H 3.29917 15.6004 10.9455
H 2.79529 17.0259 10.8738
Ow 5.16053 28.6854 0.6209
H 5.2269 27.8744 1.12493
H 4.65797 29.2761 1.18182
Ow 16.8389 20.233 9.78052
H 16.1217 20.5041 10.3533
H 16.9696 19.3064 9.98149
Ow 27.3282 26.1213 20.1543
H 27.1457 25.1829 20.1061
H 28.2811 26.1771 20.2255
Ow 13.4289 4.61361 27.359
H 13.1724 3.95397 28.0034
H 13.503 4.12962 26.5366
Ow 2.23449 22.0695 3.47688
H 3.07748 21.9649 3.03576
H 2.33082 22.8707 3.99179
Ow 25.3564 23.1679 16.7954
H 25.6628 24.0698 16.7016
H 25.8509 22.6772 16.1389
Ow 18.8115 25.2176 4.23502
H 18.5377 24.408 3.80407
H 19.6441 24.9974 4.65271
Ow 16.8533 24.4735 30.6556
H 17.2423 23.8972 31.3136
H 17.5884 24.9884 30.3229
Ow 13.7121 20.0238 7.71126
H 13.4146 19.6254 6.89342
H 13.0025 20.615 7.96231
Ow 26.0395 22.594 1.37588
H 26.1645 23.5378 1.27577
H 26.9056 22.2608 1.61037
Ow 32.0841 15.855 12.1296
H 31.8547 15.9426 13.0547
H 31.8038 16.68 11.7336
Ow 30.7778 0.871778 4.32437
H 30.7612 1.77716 4.01415
H 31.092 0.932715 5.22643
Ow 13.1078 13.1939 23.4772
H 13.039 12.6363 24.2522
H 13.5995 13.9592 23.7751
Ow 3.40915 30.3693 25.2792
H 2.97843 30.6586 24.4749
H 4.30064 30.7108 25.2102
Ow 13.9922 26.9514 8.53447
H 13.9513 26.1208 8.06087
H 14.1417 27.6083 7.85403
Ow 6.91681 1.35217 14.0145
H 6.9623 0.425422 13.7795
H 6.17319 1.69007 13.5155
Ow 13.0373 16.8984 18.6819
H 13.829 17.0641 19.1937
H 12.3216 17.1942 19.2445
Ow 7.7734 4.06754 26.9103
H 6.99215 4.47849 27.2804
H 7.43616 3.46124 26.2509
Ow 3.3566 18.9538 29.4321
H 2.47338 19.2496 29.2116
H 3.52932 19.3349 30.293
Ow 2.44766 0.989606 15.6474
H 3.38484 1.14679 15.5327
H 2.02549 1.61414 15.0574
Ow 25.7208 1.08988 8.85766
H 24.9745 0.941125 8.27704
H 25.7298 0.327568 9.43655
Ow 8.64249 9.91408 4.6703
H 8.44706 10.4975 5.40353
H 9.5847 10.0101 4.53179
Ow 13.0679 17.2762 30.4286
H 13.1981 18.1386 30.0343
H 12.2299 17.3454 30.8859
Ow 5.99317 19.4854 21.943
H 6.27454 20.2933 22.3722
H 5.03744 19.5092 21.9896
Ow 21.6182 5.68241 23.1975
H 20.7309 5.35136 23.3366
H 21.7061 6.40279 23.8216
Ow 18.4158 5.97403 20.0409
H 19.202 6.48005 19.836
H 18.401 5.27736 19.3848
Ow 16.5654 26.489 13.2008
H 16.3578 27.342 12.8186
H 15.9302 25.8898 12.8093
Ow 2.32271 27.7858 7.5286
H 2.76229 28.2956 8.2089
H 2.43907 26.8749 7.79856
Ow 29.2299 17.5809 17.7598
H 29.0332 18.5084 17.8911
H 28.3857 17.1404 17.8574
Ow 8.38819 6.88241 1.34417
H 8.81583 7.37986 0.647164
H 7.57821 7.36159 1.51883
Ow 1.02127 4.55784 11.8329
H 32.2857 4.71674 11.6556
H 1.31631 4.01731 11.1002
Ow 23.4055 24.3798 7.24084
H 23.1426 25.2263 7.60235
H 24.3476 24.4647 7.09252
Ow 18.8148 31.5527 25.6976
H 18.6655 0.281868 25.9124
H 19.2345 31.1897 26.4775
Ow 28.4005 13.5102 2.0874
H 28.3704 13.2834 3.01681
H 29.3111 13.7603 1.93083
Ow 2.30629 31.1188 4.58239
H 2.83613 30.5731 5.16347
H 1.42245 30.7579 4.6543
Ow 4.17482 14.061 18.5693
H 4.77021 13.9201 19.3053
H 4.16837 15.01 18.4441
Ow 1.63314 14.6342 0.480666
H 2.17243 14.2685 1.18176
H 0.732461 14.4938 0.772599
Ow 17.6932 17.3176 22.1434
H 17.0747 17.2989 21.4131
H 18.4439 17.8088 21.8096
Ow 29.5063 3.20356 23.3184
H 28.5663 3.04255 23.4
H 29.8984 2.7037 24.0343
Ow 31.2699 11.6698 23.944
H 31.206 11.4105 24.8634
H 30.9343 10.9164 23.4582
Ow 11.056 3.32982 20.669
H 10.95 4.28033 20.6308
H 11.898 3.19954 21.1051
Ow 1.15114 7.81756 3.39726
H 2.10618 7.75775 3.41929
H 0.971296 8.74908 3.27166
Ow 1.81238 9.00889 32.2602
H 2.44359 8.34682 0.349884
H 1.87913 9.69995 0.727236
Ow 20.7672 12.1327 18.7893
H 20.6696 11.8462 19.6974
H 20.2103 11.5367 18.2885
Ow 0.884773 29.7794 22.8198
H 1.31598 29.3268 22.095
H 0.719461 29.0936 23.4667
Ow 31.3103 1.15615 6.7536
H 31.4891 0.324398 7.19208
H 30.7066 1.61167 7.3401
Ow 31.7362 31.0267 8.53647
H 31.2692 31.3793 9.29374
H 31.5747 30.084 8.57239
Ow 1.45589 16.623 25.8618
H 2.08953 17.1832 26.3099
H 1.34639 17.0259 25.0005
Ow 21.7849 17.2719 16.2228
H 22.6514 17.2681 15.8162
H 21.7582 18.0876 16.7228
Ow 9.44817 17.1297 23.8583
H 9.74062 16.2292 23.719
H 8.57777 17.1634 23.4615
Ow 30.6364 3.39227 16.4261
H 30.2312 4.13735 15.9835
H 30.4839 2.65179 15.8387
Ow 8.40719 28.2538 13.2507
H 7.90571 29.0339 13.014
H 9.01757 28.1312 12.5236
Ow 8.11153 16.211 19.9024
H 7.68658 17.0355 19.6661
H 7.40022 15.6593 20.2277
Ow 18.8563 16.2182 11.5249
H 19.0736 16.0602 10.6062
H 19.5775 16.7553 11.853
Ow 3.44266 7.93365 20.5766
H 2.54171 8.16482 20.3508
H 3.79728 7.54229 19.7784
Ow 2.00877 25.9051 1.27896
H 1.57904 25.8806 0.423854
H 2.84016 25.4507 1.14297
Ow 24.3852 27.9204 2.85876
H 25.2846 27.6612 3.05913
H 24.4314 28.8678 2.73055
Ow 24.4589 3.39743 17.4868
H 24.5791 4.32536 17.6883
H 25.3146 3.10779 17.1704
Ow 11.3567 0.600845 2.88378
H 11.5572 32.266 2.10963
H 10.5156 1.01143 2.68309
Ow 27.0494 27.5137 29.3562
H 26.7056 28.3876 29.171
H 27.0749 27.4635 30.3117
Ow 12.179 27.6114 15.2045
H 12.1484 26.6549 15.1861
H 13.1124 27.8221 15.18
Ow 8.7837 18.2482 5.70305
H 8.99049 19.1509 5.46094
H 9.41536 17.7185 5.2166
Ow 3.93662 6.56573 22.9668
H 3.64404 7.14221 22.261
H 3.21468 5.94904 23.0878
Ow 10.3647 14.4554 2.44011
H 10.8248 14.8845 3.16143
H 9.43972 14.6421 2.60054
Ow 18.685 6.44731 6.18662
H 18.0738 7.14028 5.93707
H 18.1431 5.66098 6.2508
Ow 6.3386 23.279 17.2415
H 5.67103 22.7595 17.6895
H 6.29199 22.994 16.329
Ow 8.76647 22.4704 24.8544
H 8.00395 22.9688 25.1483
H 9.49098 23.0946 24.8942
Ow 21.6271 9.34092 27.6687
H 21.347 10.0652 28.2283
H 21.627 8.57755 28.2461
Ow 10.8038 16.3423 32.1375
H 10.0827 15.9897 31.616
H 10.3859 16.958 0.547777
Ow 14.0416 13.19 30.773
H 14.6394 13.8015 30.343
H 13.1694 13.5423 30.5958
Ow 1.89106 23.4868 17.0552
H 1.59812 23.4687 16.1439
H 1.14207 23.8324 17.5407
Ow 29.4328 5.14879 14.9146
H 28.7192 5.56386 14.4301
H 29.7456 5.82916 15.5109
Ow 7.51946 27.2128 21.3225
H 7.24497 26.3656 20.9718
H 8.38453 27.3616 20.9409
Ow 15.5289 9.52754 30.5143
H 16.0506 8.72826 30.586
H 14.6625 9.22501 30.2425
Ow 5.84038 7.20388 11.6156
H 5.74537 7.95959 11.036
H 4.95054 6.8664 11.7178
Ow 26.6476 28.3179 23.8164
H 27.2995 28.9711 24.0704
H 25.9265 28.8288 23.449
Ow 4.2292 0.661757 7.0741
H 3.48155 1.00643 7.56233
H 4.35865 31.9721 7.4242
Ow 5.71912 9.58868 10.159
H 5.38345 10.2775 10.7326
H 5.04585 9.48738 9.48608
Ow 12.8533 29.0268 22.6624
H 13.4756 29.3018 21.9892
H 11.994 29.1451 22.2576
Ow 13.8715 9.97676 15.0217
H 14.7018 9.58281 15.2893
H 13.2506 9.71204 15.7004
Ow 0.960818 20.8809 5.88988
H 1.54683 21.1035 5.16656
H 0.894917 21.6868 6.40204
Ow 26.0276 24.223 27.0324
H 26.5942 24.6398 27.6822
H 26.3549 23.3258 26.9688
Ow 20.6228 11.9559 1.07384
H 20.1868 12.6239 1.60277
H 21.0172 12.4425 0.350053
Ow 32.0676 27.4848 3.13131
H 31.2705 26.9604 3.05491
H 31.9949 28.1352 2.43274
Ow 12.0857 19.2999 12.7781
H 12.0502 19.5338 13.7056
H 11.9026 20.1184 12.317
Ow 3.46944 10.3902 30.5078
H 2.86794 9.86983 31.0403
H 2.90768 11.0227 30.0599
Ow 29.6342 2.34687 18.8511
H 30.237 2.38485 19.5937
H 30.1033 2.78108 18.1387
Ow 3.03288 15.6533 14.2292
H 3.15579 15.8498 13.3006
H 3.20337 16.483 14.6747
Ow 11.5707 6.13976 9.23307
H 10.7674 6.59209 9.49027
H 11.5488 5.3161 9.72017
Ow 0.640685 29.8913 13.0742
H 1.51744 30.1223 13.381
H 0.315866 30.6875 12.654
Ow 31.9853 20.8373 26.0681
H 31.2639 21.4666 26.0778
H 32.4458 20.9874 26.8936
Ow 14.6831 15.091 14.6171
H 15.5945 15.2168 14.3531
H 14.6936 15.1864 15.5694
Ow 21.5845 21.1066 8.58491
H 22.1186 21.7811 9.00431
H 22.0836 20.854 7.80795
Ow 25.2092 32.2682 0.529502
H 24.7178 0.753552 0.99403
H 25.5776 0.526863 31.961
Ow 9.72951 14.0698 28.8036
H 9.46024 14.5965 29.5561
H 10.6842 14.0361 28.8636
Ow 0.577282 20.2598 28.6794
H 31.8474 20.08 28.8659
H 0.700511 21.173 28.9383
Ow 28.3049 4.79369 32.0675
H 28.397 5.25595 0.708806
H 29.0308 5.11538 31.5331
Ow 4.97258 26.2202 17.3983
H 4.388 26.1521 16.6435
H 5.26248 27.1324 17.3958
Ow 18.1 7.99624 24.203
H 18.7845 8.54829 23.8253
H 18.2397 8.05361 25.1483
Ow 11.9736 8.98133 30.8457
H 11.3077 8.74105 30.2014
H 12.5091 9.63974 30.403
Ow 26.2788 14.2969 21.6543
H 27.0087 13.7799 21.9952
H 26.4723 15.1939 21.9265
Ow 9.97351 11.5237 2.86246
H 10.724 10.992 2.59769
H 10.2373 12.4236 2.67053
Ow 16.4515 14.3054 20.4367
H 16.9015 14.1421 21.2656
H 15.9195 15.0837 20.6019
Ow 13.4354 28.2988 25.4852
H 13.0136 27.4626 25.2876
H 12.9401 28.6482 26.2261
Ow 11.5922 18.3331 26.5801
H 11.6689 19.0143 27.2481
H 12.3355 17.7525 26.7429
Ow 18.999 6.91841 28.7674
H 18.5834 6.54033 27.9925
H 18.2727 7.10632 29.3618
Ow 12.2389 14.9596 28.8216
H 12.6729 15.1215 27.984
H 12.4766 15.7114 29.3643
Ow 24.8136 25.5242 29.2111
H 24.4159 26.249 29.6935
H 25.1206 24.9237 29.8903
Ow 1.2514 32.1352 18.3919
H 1.08352 0.876997 18.5215
H 1.84438 31.8965 19.1043
Ow 15.8742 26.5758 3.93417
H 15.3168 25.8127 4.08624
H 16.0478 26.5624 2.99298
Ow 22.2178 28.8541 18.1978
H 21.653 28.1011 18.0244
H 22.9431 28.7573 17.5807
Ow 1.28143 13.5064 25.837
H 0.447984 13.4492 25.3699
H 1.47544 12.6047 26.093
Ow 25.0887 31.6648 11.9856
H 24.9049 30.7281 12.0557
H 25.9057 31.7859 12.4695
Ow 26.0172 26.6398 17.2206
H 25.2432 27.0334 16.8179
H 26.4664 26.2007 16.4985
Ow 2.6967 31.2171 20.7159
H 2.27354 30.3587 20.7043
H 2.38765 31.6261 21.5243
Ow 8.92819 19.1933 15.6036
H 9.72172 19.4569 15.1379
H 8.84502 19.8285 16.3147
Ow 27.8418 17.7995 27.3863
H 26.9443 17.7841 27.7186
H 27.7486 17.9856 26.4521
Ow 3.87739 21.732 18.2099
H 3.97076 20.7918 18.3632
H 3.89412 22.1206 19.0845
Ow 25.5596 3.54552 10.7755
H 24.8037 3.4093 11.3466
H 25.5012 4.46478 10.5153
Ow 17.4214 7.37398 30.8517
H 17.9437 7.62833 31.6123
H 17.6493 6.45685 30.6997
Ow 25.6592 16.5998 20.2093
H 25.96 15.6936 20.1421
H 25.8389 16.9769 19.3481
Ow 6.1796 25.2437 9.14569
H 6.12127 25.7888 9.9303
H 5.2725 25.0118 8.94671
Ow 2.70364 30.3248 16.5211
H 3.49257 30.2201 17.0529
H 2.40975 29.4303 16.349
Ow 9.26582 24.3053 28.1337
H 8.54086 24.0675 27.5558
H 9.82329 24.8706 27.5994
Ow 15.0627 25.1841 28.281
H 15.4532 24.3394 28.0591
H 14.1924 25.1582 27.8833
Ow 5.87894 22.8675 4.90847
H 5.70938 22.2271 4.21765
H 5.00973 23.1543 5.18844
Ow 7.80878 31.9257 30.7069
H 8.65815 32.3263 30.8917
H 7.99865 31.2504 30.0556
Ow 13.5439 5.1828 31.2512
H 12.6386 4.87269 31.2717
H 13.5386 5.89671 30.6136
Ow 29.9924 3.07294 2.06186
H 29.061 2.91528 1.90773
H 30.4301 2.68733 1.30291
Ow 21.4013 19.482 10.4911
H 22.3014 19.4792 10.8167
H 21.3967 20.1485 9.80411
Ow 26.1858 26.1752 11.7462
H 27.1155 26.1147 11.5265
H 26.0268 25.429 12.3242
Ow 12.1888 15.9036 12.9376
H 11.9641 16.5871 12.3062
H 11.4051 15.3564 12.9878
Ow 27.2886 27.9724 32.2577
H 27.6241 28.0739 0.95695
H 26.6556 28.6833 32.1573
Ow 7.78777 25.7275 16.6461
H 7.74834 26.6825 16.6976
H 7.78095 25.5375 15.7081
Ow 8.91671 21.6926 17.1532
H 8.14982 22.2601 17.2311
H 9.53875 22.2 16.6319
Ow 22.5867 20.3176 6.32079
H 23.0427 19.7983 5.65862
H 21.6847 19.9984 6.29681
Ow 12.9488 29.4763 10.1875
H 13.1918 28.731 10.7367
H 12.2474 29.9124 10.6713
Ow 1.14882 28.2823 10.9082
H 2.08081 28.4719 10.8004
H 0.900428 28.7461 11.7078
Ow 21.7882 3.17244 26.1893
H 21.503 3.00875 25.2904
H 22.2301 4.02058 26.1502
Ow 1.35722 8.30918 10.1265
H 1.46599 9.24649 9.96789
H 1.25453 7.92876 9.25405
Ow 0.650458 5.22559 20.2976
H 32.2548 5.1351 21.0481
H 1.52795 5.12322 20.666
Ow 10.154 2.71703 8.67334
H 9.23212 2.63386 8.91668
H 10.573 3.09535 9.44629
Ow 24.872 11.871 23.1879
H 25.7158 11.5989 23.5487
H 24.2934 11.9289 23.9482
Ow 23.8276 12.2906 29.4555
H 24.5351 11.6462 29.4737
H 23.5184 12.2821 28.5497
Ow 21.7703 11.0529 3.72148
H 21.2339 11.6875 4.19667
H 22.5752 11.5272 3.51336
Ow 14.7093 22.4128 23.389
H 14.2196 21.6562 23.0667
H 14.2831 22.6401 24.2154
Ow 22.8607 8.48546 18.4498
H 23.2796 7.90715 17.8122
H 22.899 9.35347 18.0483
Ow 22.1633 19.75 17.9815
H 22.7044 19.8153 17.1947
H 21.3699 20.2413 17.7686
Ow 29.6137 18.9244 28.9877
H 28.9242 18.6437 28.3861
H 30.0332 18.1113 29.2682
Ow 1.47554 11.1902 9.85085
H 2.05134 10.9042 9.14178
H 0.69741 11.5274 9.40679
Ow 18.358 14.2118 29.5777
H 18.4527 13.8688 30.4662
H 19.2547 14.2791 29.2496
Ow 4.29606 23.4773 30.077
H 4.40166 23.6826 29.148
H 4.63075 24.2495 30.5331
Ow 6.99324 5.52881 7.4246
H 6.10042 5.58658 7.76472
H 7.04778 6.22834 6.77358
Ow 15.2085 8.94522 26.3742
H 15.1895 8.24915 27.0315
H 14.7452 9.67538 26.7846
Ow 5.72173 4.50483 0.935405
H 5.8396 4.76916 32.2147
H 5.16561 5.18631 1.31287
Ow 29.8448 29.6799 16.687
H 30.196 29.1758 15.9532
H 29.2869 29.0616 17.1585
Ow 9.74822 29.3822 15.6399
H 9.46466 29.0432 14.7909
H 8.93629 29.5117 16.13
Ow 7.43414 31.6172 22.3007
H 6.7493 31.8194 21.6633
H 7.04489 31.8333 23.148
Ow 15.5534 20.0963 4.09982
H 15.8762 20.6778 3.4115
H 15.6343 20.6086 4.90428
Ow 30.0035 11.3056 17.3868
H 29.2433 11.5952 16.8826
H 30.7565 11.5614 16.854
Ow 29.2538 31.4972 9.51564
H 29.0605 31.4225 10.4501
H 29.4017 32.4324 9.37523
Ow 26.8199 30.5126 29.3332
H 26.3458 30.2691 30.1283
H 27.7171 30.6696 29.6273
Ow 10.051 2.84455 13.7656
H 9.76605 2.83982 14.6793
H 10.3985 3.72559 13.6271
Ow 30.8607 28.2274 24.2705
H 30.3398 28.8074 24.8261
H 30.401 27.3884 24.3011
Ow 7.77084 14.2036 26.0444
H 7.38925 13.86 25.2367
H 7.42237 13.6384 26.7339
Ow 13.2001 9.36771 24.3721
H 13.5292 10.2152 24.6709
H 12.2533 9.41756 24.5048
Ow 9.64184 8.98183 29.194
H 9.3676 8.12404 29.5198
H 9.73365 8.86169 28.2489
Ow 23.4383 14.1055 26.9523
H 24.0542 14.8354 27.015
H 23.7564 13.5858 26.2142
Ow 20.0984 19.2226 0.949764
H 20.6914 18.9315 1.64238
H 19.9425 20.1477 1.1404
Ow 13.4757 0.589692 9.18481
H 12.6842 32.3633 8.84547
H 13.997 32.0592 9.53504
Ow 1.35465 22.7871 28.6934
H 0.691415 23.411 28.9885
H 2.1816 23.1459 29.0152
Ow 32.463 6.62007 0.798479
H 0.532557 6.58362 1.71787
H 0.390166 7.53651 0.550057
Ow 20.9731 14.7046 25.9372
H 21.8755 14.4166 26.0747
H 20.7259 14.3253 25.0939
Ow 6.12489 25.9441 4.92577
H 5.27173 26.0064 5.3552
H 5.93208 26.0439 3.99355
Ow 21.7467 7.10017 29.1834
H 20.8057 7.19283 29.0345
H 21.8188 6.81852 30.0952
Ow 25.2051 6.29271 28.532
H 25.0273 7.14568 28.9282
H 24.4507 6.12897 27.9662
Ow 5.14077 28.8794 29.7408
H 5.60948 29.6622 29.451
H 5.04285 28.9945 30.686
Ow 23.8929 1.16643 19.5013
H 23.2905 1.89229 19.6637
H 23.3254 0.429686 19.2748
Ow 8.52677 15.6299 30.5757
H 7.84715 15.1632 31.0619
H 8.05253 16.3003 30.0841
Ow 6.48792 2.16865 2.03922
H 6.23826 2.96439 1.56951
H 7.39154 2.32525 2.31325
Ow 30.5703 5.63406 30.4886
H 31.0319 4.83159 30.2454
H 31.2562 6.21531 30.8169
Ow 27.3366 18.5727 15.1539
H 28.2143 18.5956 15.5351
H 27.1089 19.4928 15.0205
Ow 32.3383 12.1425 16.3267
H 0.561681 12.9835 16.5179
H 0.862387 11.5079 16.3631
Ow 8.12923 13.8368 10.1862
H 7.76912 13.6942 11.0615
H 7.56499 13.3234 9.60807
Ow 25.3146 6.62218 5.20725
H 25.4598 5.87092 4.63221
H 24.7317 6.29201 5.89089
Ow 19.9768 18.5236 20.6655
H 20.2215 19.1904 21.3072
H 20.3449 18.8385 19.84
Ow 8.53183 24.188 22.2773
H 9.09194 24.5045 22.9861
H 8.91943 24.555 21.483
Ow 1.11345 0.836343 25.0836
H 1.91669 1.21677 25.4391
H 0.949354 32.2593 25.6303
Ow 9.63675 15.0947 7.42458
H 10.3031 15.1298 6.73836
H 8.80571 15.1741 6.95638
Ow 2.72319 7.78937 7.00261
H 2.05191 7.12225 6.85943
H 3.16119 7.87468 6.15583
Ow 27.6725 25.2453 15.6333
H 28.394 25.1068 16.2469
H 27.723 24.5023 15.0319
Ow 18.7381 24.7714 14.4839
H 19.5757 25.2272 14.4015
H 18.7836 24.3384 15.3361
Ow 11.9729 25.4616 11.9151
H 11.8 25.1393 12.7996
H 11.1426 25.3495 11.4523
Ow 5.63901 29.3742 22.4347
H 6.25026 29.9235 22.9253
H 5.237 29.9689 21.8015
Ow 17.3349 23.6904 7.79751
H 18.2332 23.3978 7.64414
H 17.2231 24.4394 7.21159
Ow 28.2704 12.5972 4.64578
H 28.14 11.773 4.17696
H 28.6515 12.3384 5.48477
Ow 30.8515 24.0964 4.82066
H 30.2243 24.7965 4.64
H 30.9913 24.1374 5.76666
Ow 20.5497 30.6887 14.3367
H 20.9095 29.9044 13.9224
H 20.0861 30.3618 15.1076
Ow 31.9865 17.9882 17.9568
H 0.720437 17.7497 18.0091
H 31.9024 18.4405 17.1174
Ow 23.5965 8.92556 6.12019
H 24.0969 9.59346 5.65151
H 23.9069 8.98301 7.02378
Ow 23.9418 25.725 0.927839
H 23.5067 24.9035 0.6999
H 24.8729 25.5044 0.953847
Ow 10.7923 3.23124 27.4732
H 11.161 2.95508 26.6341
H 10.386 2.44083 27.8286
Ow 13.8267 11.7097 25.6226
H 12.9842 11.6356 26.0708
H 14.4037 12.1253 26.2632
Ow 1.34198 17.9078 23.1918
H 2.05722 18.3534 22.738
H 0.60341 18.5133 23.1285
Ow 25.1231 15.6376 11.4622
H 25.8441 15.0372 11.2728
H 24.7526 15.8457 10.6045
Ow 24.8171 2.75179 22.0763
H 24.2845 2.86817 21.2895
H 24.3564 3.24718 22.7534
Ow 15.4289 7.21476 24.0503
H 16.3359 7.5045 24.1481
H 15.4961 6.28523 23.8323
Ow 31.3215 15.9776 27.1946
H 30.5234 16.2343 26.7329
H 32.0303 16.2024 26.5918
Ow 25.0588 3.39091 5.01146
H 24.5644 3.76285 4.28108
H 24.5443 2.63259 5.28797
Ow 12.0629 7.45937 0.81415
H 11.9204 8.044 32.2616
H 11.7445 7.95171 1.5707
Ow 26.7129 3.50712 13.509
H 26.8345 4.09303 12.762
H 26.6557 4.09111 14.2652
Ow 25.7906 6.28719 10.3384
H 25.0013 6.45662 9.82396
H 25.6633 6.78663 11.1449
Ow 32.0731 7.55002 5.84894
H 32.2131 8.41232 6.23962
H 32.2711 7.67244 4.92051
Ow 30.9781 10.4429 3.28971
H 30.9014 10.4296 4.24368
H 31.1414 11.3613 3.07493
Ow 2.03785 20.7712 16.3543
H 2.6879 21.0885 15.7275
H 2.2291 19.8382 16.4471
Ow 3.37265 27.5564 24.1607
H 4.11091 26.9709 23.9923
H 2.61459 27.0965 23.8001
Ow 31.8659 28.4373 8.63421
H 32.4262 28.4227 9.41008
H 31.0536 28.0169 8.91676
Ow 23.8773 25.0346 25.1046
H 23.423 24.5682 25.8063
H 24.0258 24.3706 24.4319
Ow 14.8227 5.09468 2.65733
H 14.5986 5.99186 2.41038
H 15.5291 4.85056 2.0594
Ow 11.0084 14.2907 26.1838
H 11.937 14.4964 26.2913
H 10.8444 14.404 25.2476
Ow 19.6112 30.7179 28.695
H 19.4458 29.7884 28.5379
H 18.7687 31.0656 28.9875
Ow 17.0998 1.85926 12.0126
H 16.2064 2.17808 11.886
H 17.055 1.33051 12.8093
Ow 12.9463 14.6246 1.34009
H 13.0959 15.2044 2.0868
H 13.0997 13.7449 1.68484
Ow 5.97545 20.0433 28.0175
H 5.92738 20.2878 28.9416
H 5.68009 20.823 27.5473
Ow 28.044 4.97498 28.8844
H 28.3338 4.06739 28.7926
H 28.7988 5.43147 29.256
Ow 5.59721 27.6827 7.19793
H 5.67452 26.8874 7.72496
H 5.56324 28.3929 7.8385
Ow 21.979 25.0038 3.00135
H 21.4049 25.1523 2.25006
H 22.842 25.293 2.70475
Ow 11.1854 17.8559 8.22981
H 10.9742 18.7873 8.29353
H 11.7131 17.7834 7.43462
Ow 23.118 22.523 18.2015
H 23.7766 22.7537 17.5463
H 22.7511 23.3624 18.4788
Ow 25.5959 7.65488 12.6306
H 24.8053 7.9723 12.1943
H 25.3252 7.50106 13.5358
Ow 18.5117 24.382 10.4201
H 18.4592 24.7367 11.3074
H 19.2162 24.8793 10.0043
Ow 32.112 31.3127 15.325
H 32.278 31.0211 14.4286
H 31.5749 32.0987 15.226
Ow 31.8537 22.3698 2.48767
H 0.498506 22.3581 2.9525
H 31.2083 22.588 3.15995
Ow 26.79 1.20542 19.8141
H 27.1512 0.355973 20.0673
H 25.8794 1.0202 19.5845
Ow 17.6402 19.2259 6.46508
H 17.2308 20.027 6.79196
H 17.537 18.5956 7.17793
Ow 7.5147 17.5525 28.9475
H 6.93144 18.1759 28.5148
H 8.08855 18.0958 29.4876
Ow 4.71956 12.9101 25.5508
H 5.19934 12.8957 24.7227
H 5.33366 12.5494 26.1902
Ow 9.39043 16.6089 26.9699
H 9.09655 17.0705 27.7552
H 9.92274 17.2504 26.4995
Ow 2.21818 32.3593 9.62169
H 3.06256 32.0304 9.92947
H 1.74383 31.5767 9.34096
Ow 25.5394 11.3954 11.3322
H 25.1135 10.8397 10.6795
H 25.925 10.7804 11.9561
Ow 5.26428 0.858697 32.0291
H 4.5453 1.42253 31.744
H 5.60647 1.28485 0.622805
Ow 26.5447 3.84835 7.84593
H 25.6952 4.17787 7.55279
H 27.0999 4.6265 7.89545
Ow 4.00119 12.7032 11.0626
H 4.39557 12.5477 10.2044
H 4.54519 12.203 11.6708
Ow 14.7089 21.0433 11.3325
H 13.7599 20.9238 11.2986
H 14.9261 20.9777 12.2624
Ow 0.90511 9.17631 19.6595
H 1.51682 9.34251 18.9423
H 32.3102 8.83889 19.2309
Ow 14.8362 4.33561 5.26256
H 14.8804 4.55105 4.33102
H 15.6895 3.95001 5.46051
Ow 6.83247 8.77953 28.4111
H 6.33075 7.98462 28.5936
H 7.74743 8.50414 28.4673
Ow 14.2221 25.6702 18.2955
H 14.9877 25.0964 18.2654
H 13.6918 25.4024 17.545
Ow 8.5912 20.478 27.1837
H 7.63921 20.5745 27.2077
H 8.80263 19.9859 27.9769
Ow 23.7505 30.5316 8.28014
H 23.3943 31.2492 7.75626
H 22.9825 30.1172 8.67241
Ow 30.9716 13.653 28.492
H 31.695 13.7795 29.1059
H 31.0652 14.3662 27.8606
Ow 17.2954 19.9965 30.7182
H 17.862 20.7593 30.8338
H 16.6368 20.2806 30.0845
Ow 30.0217 13.0016 19.7005
H 29.9972 12.369 18.9826
H 30.4686 13.7642 19.3332
Ow 30.8029 23.7186 28.218
H 30.64 23.5645 27.2875
H 30.0108 24.1553 28.5311