LAMMPS (23 Jun 2022 - Update 1)
Reading data file ...
  orthogonal box = (0 0 0) to (32.73665 32.73665 32.73665)
  2 by 4 by 4 MPI processor grid
  reading atoms ...
  3486 atoms
  scanning bonds ...
  4 = max bonds/atom
  scanning angles ...
  6 = max angles/atom
  reading bonds ...
  2324 bonds
  reading angles ...
  1324 angles
Finding 1-2 1-3 1-4 neighbors ...
  special bond factors lj:    0        0        0       
  special bond factors coul:  0        0        0       
     4 = max # of 1-2 neighbors
     3 = max # of 1-3 neighbors
     3 = max # of 1-4 neighbors
     4 = max # of special neighbors
  special bonds CPU = 0.001 seconds
  read_data CPU = 0.017 seconds
Setting atom values ...
  1000 settings made for charge
Setting atom values ...
  2000 settings made for charge
Setting atom values ...
  108 settings made for charge
Setting atom values ...
  108 settings made for charge
Setting atom values ...
  54 settings made for charge
Setting atom values ...
  216 settings made for charge
1000 atoms in group wat
108 atoms in group Li
54 atoms in group S
  create bodies CPU = 0.001 seconds
  1162 rigid bodies with 3486 atoms
  1.4900075 = max distance from body owner to body atom
PPPM initialization ...
  extracting TIP4P info from pair style
  using 12-bit tables for long-range coulomb (../kspace.cpp:342)
  G vector (1/distance) = 0.30884801
  grid = 30 30 30
  stencil order = 5
  estimated absolute RMS force accuracy = 0.0040043444
  estimated relative force accuracy = 1.2058964e-05
  using double precision KISS FFT
  3d grid and FFT values/proc = 4950 960
Generated 0 of 15 mixed pair_coeff terms from arithmetic mixing rule
Neighbor list info ...
  update every 1 steps, delay 0 steps, check yes
  max neighbors/atom: 2000, page size: 100000
  master list distance cutoff = 12.3092
  ghost atom cutoff = 12.3092
  binsize = 6.1546, bins = 6 6 6
  1 neighbor lists, perpetual/occasional/extra = 1 0 0
  (1) pair lj/cut/tip4p/long, perpetual
      attributes: half, newton on
      pair build: half/bin/newton
      stencil: half/bin/3d
      bin: standard
Setting up Verlet run ...
  Unit style    : real
  Current step  : 0
  Time step     : 0.001
Per MPI rank memory allocation (min/avg/max) = 15.47 | 15.5 | 15.53 Mbytes
   Step        Density          Temp          Press          TotEng    
         0   1.1336932      326.33161      433144.15      8535.9434    
      1000   1.1324651      363.28905      122180.05      8466.9301    
      2000   1.1288395      472.84877      116075.5       8260.7496    
      3000   1.1229552      642.12158      105427.87      7906.5445    
      4000   1.1150534      850.41166      90975.555      7383.6412    
      5000   1.1054595      1082.5746      76948.031      6729.4363    
      6000   1.0945177      1319.7726      62651.631      5955.0357    
      7000   1.0825895      1543.9819      48373.447      5069.3325    
      8000   1.0700419      1741.4046      36104.65       4091.8954    
      9000   1.0572087      1902.2007      25089.194      3043.9915    
     10000   1.0443867      2021.1732      15948.295      1950.5014    
Loop time of 30.6729 on 32 procs for 10000 steps with 3486 atoms

Performance: 0.028 ns/day, 852.026 hours/ns, 326.020 timesteps/s
99.5% CPU use with 32 MPI tasks x no OpenMP threads

MPI task timing breakdown:
Section |  min time  |  avg time  |  max time  |%varavg| %total
---------------------------------------------------------------
Pair    | 9.5674     | 12.063     | 14.331     |  32.4 | 39.33
Bond    | 0.034061   | 0.045948   | 0.056631   |   2.3 |  0.15
Kspace  | 5.4254     | 7.7105     | 10.208     |  40.8 | 25.14
Neigh   | 0.0024216  | 0.0024806  | 0.0025579  |   0.1 |  0.01
Comm    | 2.3004     | 2.3313     | 2.3598     |   1.1 |  7.60
Output  | 0.00053911 | 0.00058229 | 0.0016594  |   0.0 |  0.00
Modify  | 7.8016     | 8.1286     | 8.3682     |   5.6 | 26.50
Other   |            | 0.3902     |            |       |  1.27

Nlocal:        108.938 ave         120 max          92 min
Histogram: 1 1 2 2 3 4 8 5 2 4
Nghost:        4121.72 ave        4164 max        4079 min
Histogram: 1 5 2 3 7 1 3 5 4 1
Neighs:        40233.7 ave       46710 max       32391 min
Histogram: 2 0 2 6 2 7 5 3 2 3

Total # of neighbors = 1287478
Ave neighs/atom = 369.32817
Ave special neighs/atom = 2.0929432
Neighbor list builds = 2
Dangerous builds = 0
PPPM initialization ...
  extracting TIP4P info from pair style
  using 12-bit tables for long-range coulomb (../kspace.cpp:342)
  G vector (1/distance) = 0.3115253
  grid = 32 32 32
  stencil order = 5
  estimated absolute RMS force accuracy = 0.0032539985
  estimated relative force accuracy = 9.7993199e-06
  using double precision KISS FFT
  3d grid and FFT values/proc = 5175 1024
Generated 0 of 15 mixed pair_coeff terms from arithmetic mixing rule
Setting up Verlet run ...
  Unit style    : real
  Current step  : 10000
  Time step     : 0.01
Per MPI rank memory allocation (min/avg/max) = 15.5 | 15.52 | 15.54 Mbytes
   Step        Density          Temp          Press          TotEng    
     10000   1.0443867      2021.1732      11531.491      1950.497     
     11000   0.9450637      1662.7837     -13381.844     -7339.2836    
     12000   0.89745388     1188.8065     -13621.403     -11870.561    
     13000   0.88329459     977.07406     -12331.16      -14836.462    
     14000   0.89384829     839.66648     -11029.313     -17023.716    
     15000   0.92468046     722.405       -8176.1488     -18755.419    
     16000   0.96930708     668.45135     -4417.3382     -20097.643    
     17000   1.0180747      635.02962     -1519.4642     -21186.554    
     18000   1.0641349      604.1173       1268.4402     -22105.64     
     19000   1.1034562      579.96574      2405.9076     -22917.79     
     20000   1.1347386      564.39108      2100.6096     -23661.128    
Loop time of 29.2406 on 32 procs for 10000 steps with 3486 atoms

Performance: 0.295 ns/day, 81.224 hours/ns, 341.990 timesteps/s
99.5% CPU use with 32 MPI tasks x no OpenMP threads

MPI task timing breakdown:
Section |  min time  |  avg time  |  max time  |%varavg| %total
---------------------------------------------------------------
Pair    | 9.0552     | 11         | 13.088     |  31.7 | 37.62
Bond    | 0.036491   | 0.046612   | 0.054245   |   2.0 |  0.16
Kspace  | 6.0826     | 8.1836     | 10.131     |  36.8 | 27.99
Neigh   | 0.020286   | 0.020518   | 0.020812   |   0.1 |  0.07
Comm    | 2.0584     | 2.0919     | 2.1194     |   1.1 |  7.15
Output  | 0.00048129 | 0.00054377 | 0.0023222  |   0.0 |  0.00
Modify  | 7.5203     | 7.6879     | 7.7319     |   1.3 | 26.29
Other   |            | 0.2095     |            |       |  0.72

Nlocal:        108.938 ave         126 max          96 min
Histogram: 2 1 7 3 6 5 4 1 2 1
Nghost:        4276.44 ave        4298 max        4251 min
Histogram: 1 3 6 3 3 1 2 7 3 3
Neighs:        42116.7 ave       50668 max       35556 min
Histogram: 1 5 5 5 4 4 3 3 0 2

Total # of neighbors = 1347734
Ave neighs/atom = 386.61331
Ave special neighs/atom = 2.0929432
Neighbor list builds = 17
Dangerous builds = 0
PPPM initialization ...
  extracting TIP4P info from pair style
  using 12-bit tables for long-range coulomb (../kspace.cpp:342)
  G vector (1/distance) = 0.3088703
  grid = 30 30 30
  stencil order = 5
  estimated absolute RMS force accuracy = 0.004000675
  estimated relative force accuracy = 1.2047914e-05
  using double precision KISS FFT
  3d grid and FFT values/proc = 4950 960
Generated 0 of 15 mixed pair_coeff terms from arithmetic mixing rule
Setting up Verlet run ...
  Unit style    : real
  Current step  : 20000
  Time step     : 0.1
Per MPI rank memory allocation (min/avg/max) = 15.47 | 15.5 | 15.53 Mbytes
   Step        Density          Temp          Press          TotEng    
     20000   1.1347386      564.39108      3623.0467     -23661.099    
     21000   1.2147062      355.98732      969.85772     -28080.376    
     22000   1.2202002      330.31428      372.07881     -29147.548    
     23000   1.2111453      325.26774     -148.47721     -29515.904    
     24000   1.2015121      323.24846      502.06616     -29612.34     
     25000   1.1983004      315.74214     -352.66798     -29786.786    
     26000   1.191592       328.77097     -266.25664     -29738.359    
     27000   1.1932657      319.91582      658.50536     -29870.311    
     28000   1.1894886      324.08695     -84.957353     -29940.272    
     29000   1.1829865      330.41021     -527.07236     -29963.473    
     30000   1.1916364      322.11866      531.73009     -30003.938    
Loop time of 32.5352 on 32 procs for 10000 steps with 3486 atoms

Performance: 2.656 ns/day, 9.038 hours/ns, 307.359 timesteps/s
99.6% CPU use with 32 MPI tasks x no OpenMP threads

MPI task timing breakdown:
Section |  min time  |  avg time  |  max time  |%varavg| %total
---------------------------------------------------------------
Pair    | 11.831     | 13.347     | 15.019     |  20.9 | 41.02
Bond    | 0.038855   | 0.046455   | 0.052356   |   1.5 |  0.14
Kspace  | 5.933      | 7.5984     | 9.1205     |  27.7 | 23.35
Neigh   | 0.14095    | 0.14206    | 0.14292    |   0.1 |  0.44
Comm    | 2.4247     | 2.4392     | 2.4518     |   0.4 |  7.50
Output  | 0.0004395  | 0.00049577 | 0.0019319  |   0.0 |  0.00
Modify  | 8.2597     | 8.5935     | 8.8078     |   5.4 | 26.41
Other   |            | 0.368      |            |       |  1.13

Nlocal:        108.938 ave         118 max          95 min
Histogram: 1 0 2 4 2 5 7 3 4 4
Nghost:        4442.94 ave        4472 max        4400 min
Histogram: 2 1 3 0 5 3 6 3 7 2
Neighs:          44390 ave       51241 max       40007 min
Histogram: 6 3 4 1 4 9 3 1 0 1

Total # of neighbors = 1420481
Ave neighs/atom = 407.48164
Ave special neighs/atom = 2.0929432
Neighbor list builds = 105
Dangerous builds = 0
PPPM initialization ...
  extracting TIP4P info from pair style
  using 12-bit tables for long-range coulomb (../kspace.cpp:342)
  G vector (1/distance) = 0.31005107
  grid = 30 30 30
  stencil order = 5
  estimated absolute RMS force accuracy = 0.0038107428
  estimated relative force accuracy = 1.1475939e-05
  using double precision KISS FFT
  3d grid and FFT values/proc = 4950 960
Generated 0 of 15 mixed pair_coeff terms from arithmetic mixing rule
Setting up Verlet run ...
  Unit style    : real
  Current step  : 30000
  Time step     : 0.2
Per MPI rank memory allocation (min/avg/max) = 15.48 | 15.51 | 15.53 Mbytes
   Step        Density          Temp          Press          TotEng    
     30000   1.1916364      322.11866      1707.681      -30003.939    
     31000   1.1910992      329.32111      457.84108     -30006.689    
     32000   1.1866383      334.99106     -817.56163     -30089.518    
     33000   1.2037567      330.76798      1370.2581     -30124.628    
     34000   1.1967261      313.29159      278.10543     -30252.782    
     35000   1.1954491      336.76462      35.451137     -30106.46     
     36000   1.2027723      316.38403     -177.1693      -30325.728    
     37000   1.1947365      335.27371     -896.70696     -30287.352    
     38000   1.1963577      323.52907      638.41409     -30367.018    
     39000   1.1947243      322.86322      107.06049     -30357.358    
     40000   1.2022533      318.78764      288.08654     -30445.849    
Loop time of 33.0889 on 32 procs for 10000 steps with 3486 atoms

Performance: 5.222 ns/day, 4.596 hours/ns, 302.216 timesteps/s
99.6% CPU use with 32 MPI tasks x no OpenMP threads

MPI task timing breakdown:
Section |  min time  |  avg time  |  max time  |%varavg| %total
---------------------------------------------------------------
Pair    | 12.099     | 13.473     | 14.993     |  18.4 | 40.72
Bond    | 0.041886   | 0.047168   | 0.056719   |   1.5 |  0.14
Kspace  | 5.9386     | 7.4689     | 8.8407     |  24.8 | 22.57
Neigh   | 0.35273    | 0.35576    | 0.35849    |   0.2 |  1.08
Comm    | 2.491      | 2.5061     | 2.5237     |   0.6 |  7.57
Output  | 0.00042719 | 0.00048021 | 0.0019585  |   0.0 |  0.00
Modify  | 8.5425     | 8.8676     | 9.0529     |   5.2 | 26.80
Other   |            | 0.3701     |            |       |  1.12

Nlocal:        108.938 ave         120 max          99 min
Histogram: 1 2 5 5 6 5 2 3 0 3
Nghost:        4450.88 ave        4498 max        4406 min
Histogram: 5 3 1 3 4 4 3 3 4 2
Neighs:        44751.6 ave       53117 max       39949 min
Histogram: 3 5 6 8 5 0 2 1 0 2

Total # of neighbors = 1432052
Ave neighs/atom = 410.80092
Ave special neighs/atom = 2.0929432
Neighbor list builds = 260
Dangerous builds = 0
PPPM initialization ...
  extracting TIP4P info from pair style
  using 12-bit tables for long-range coulomb (../kspace.cpp:342)
  G vector (1/distance) = 0.31026452
  grid = 30 30 30
  stencil order = 5
  estimated absolute RMS force accuracy = 0.0037773088
  estimated relative force accuracy = 1.1375253e-05
  using double precision KISS FFT
  3d grid and FFT values/proc = 4950 960
Generated 0 of 15 mixed pair_coeff terms from arithmetic mixing rule
Setting up Verlet run ...
  Unit style    : real
  Current step  : 40000
  Time step     : 0.5
Per MPI rank memory allocation (min/avg/max) = 15.48 | 15.51 | 15.53 Mbytes
   Step        Density          Temp          Press          TotEng    
     40000   1.2022533      318.78764      1489.2611     -30445.849    
     41000   1.1949034      322.41862     -528.37143     -30486.547    
     42000   1.2026578      319.21452      472.21805     -30469.835    
     43000   1.1920317      315.45941      120.89821     -30549.258    
     44000   1.1931256      314.07242     -566.6448      -30517.915    
     45000   1.2007425      321.66123      1246.9308     -30451.368    
     46000   1.1939017      323.82352     -331.67032     -30516.087    
     47000   1.1871056      317.09678     -205.84641     -30522.424    
     48000   1.193608       330.47774      925.52845     -30423.084    
     49000   1.1975352      331.00644      330.80285     -30458.727    
     50000   1.1922046      323.18724      65.64087      -30541.939    
Loop time of 34.0815 on 32 procs for 10000 steps with 3486 atoms

Performance: 12.675 ns/day, 1.893 hours/ns, 293.414 timesteps/s
99.6% CPU use with 32 MPI tasks x no OpenMP threads

MPI task timing breakdown:
Section |  min time  |  avg time  |  max time  |%varavg| %total
---------------------------------------------------------------
Pair    | 12.233     | 13.581     | 15.172     |  20.2 | 39.85
Bond    | 0.041091   | 0.046694   | 0.052155   |   1.1 |  0.14
Kspace  | 5.9295     | 7.5229     | 8.8735     |  27.2 | 22.07
Neigh   | 0.91732    | 0.92587    | 0.93051    |   0.3 |  2.72
Comm    | 2.572      | 2.5856     | 2.6007     |   0.6 |  7.59
Output  | 0.0004249  | 0.00047062 | 0.0013686  |   0.0 |  0.00
Modify  | 8.7192     | 9.0488     | 9.2607     |   5.2 | 26.55
Other   |            | 0.3696     |            |       |  1.08

Nlocal:        108.938 ave         121 max         100 min
Histogram: 5 5 2 6 1 3 3 2 2 3
Nghost:        4430.31 ave        4455 max        4405 min
Histogram: 1 3 2 5 5 6 3 1 2 4
Neighs:        44365.3 ave       52452 max       38399 min
Histogram: 3 4 2 10 3 2 2 3 2 1

Total # of neighbors = 1419689
Ave neighs/atom = 407.25445
Ave special neighs/atom = 2.0929432
Neighbor list builds = 671
Dangerous builds = 0
  create bodies CPU = 0.000 seconds
  1162 rigid bodies with 3486 atoms
  1.4905044 = max distance from body owner to body atom
PPPM initialization ...
  extracting TIP4P info from pair style
  using 12-bit tables for long-range coulomb (../kspace.cpp:342)
  G vector (1/distance) = 0.31006254
  grid = 30 30 30
  stencil order = 5
  estimated absolute RMS force accuracy = 0.0038089382
  estimated relative force accuracy = 1.1470504e-05
  using double precision KISS FFT
  3d grid and FFT values/proc = 4950 960
Generated 0 of 15 mixed pair_coeff terms from arithmetic mixing rule
Setting up Verlet run ...
  Unit style    : real
  Current step  : 0
  Time step     : 1
Per MPI rank memory allocation (min/avg/max) = 16.5 | 16.53 | 16.56 Mbytes
   Step        Density          Temp          Press          TotEng    
         0   1.1922046      323.18724      2476.3241     -30541.939    
      1000   1.1927772      321.79284      237.77759     -30514.927    
      2000   1.1843269      310.86501     -366.25185     -30673.064    
      3000   1.1995232      318.58624     -929.3713      -30664.409    
      4000   1.1918411      318.32303     -394.70601     -30716.218    
      5000   1.2010399      325.11782      893.27595     -30589.431    
      6000   1.1922355      331.29842     -441.73326     -30605.328    
      7000   1.1980544      317.36996      92.827271     -30593.721    
      8000   1.1977286      328.08057     -363.0513      -30625.219    
      9000   1.2114971      312.69841      476.4363      -30713.459    
     10000   1.1942202      324.51773     -1304.1828     -30583.91     
     11000   1.2072469      316.63937     -34.577263     -30782.351    
     12000   1.2007146      325.2543      -489.57276     -30657.444    
     13000   1.1987806      320.83065     -239.38653     -30673.146    
     14000   1.1995053      322.12628      499.7028      -30680.364    
     15000   1.1977959      319.78004      411.59509     -30631.018    
     16000   1.2036074      323.38085      392.59982     -30745.015    
     17000   1.2015909      317.28676     -973.06717     -30738.732    
     18000   1.2013928      315.17758      531.46561     -30710.62     
     19000   1.1957873      323.61954      782.66245     -30629.973    
     20000   1.1997787      322.55483      527.7037      -30709.541    
     21000   1.1903479      329.76415     -21.838495     -30654.763    
     22000   1.208575       322.88285      346.75332     -30735.706    
     23000   1.1935663      311.60529     -1312.6683     -30693.282    
     24000   1.2146061      321.95606      836.56728     -30619.149    
     25000   1.2011667      321.25609      567.76163     -30652.723    
     26000   1.2071821      326.62537     -65.681666     -30670.583    
     27000   1.2043627      320.06185      173.28794     -30653.142    
     28000   1.2024609      325.45685      217.16533     -30667.818    
     29000   1.1909801      326.29946     -173.89612     -30551.883    
     30000   1.2029621      315.44818      575.97393     -30681.268    
     31000   1.1987378      322.89897     -596.26595     -30728.689    
     32000   1.2042163      324.7624       269.33385     -30715.175    
     33000   1.1979515      322.4394      -569.56589     -30688.107    
     34000   1.1853794      318.0626      -992.81195     -30640.24     
     35000   1.2032175      320.11135     -100.07869     -30716.75     
     36000   1.1993004      323.68873     -367.63184     -30657.551    
     37000   1.2000719      322.11676      759.73104     -30683.19     
     38000   1.2041234      332.35518     -421.48689     -30606.012    
     39000   1.2032579      319.69228     -364.13172     -30688.279    
     40000   1.2053779      316.92238      221.85968     -30794.209    
     41000   1.2021808      310.64587     -1057.5541     -30790.206    
     42000   1.2070311      323.20594      524.55702     -30696.894    
     43000   1.1993502      317.85843      287.0161      -30551.808    
     44000   1.20506        334.23252      677.88621     -30634.389    
     45000   1.207606       316.50846      225.64399     -30728.374    
     46000   1.198923       327.2107      -137.36427     -30568.088    
     47000   1.2055247      320.12545      775.567       -30661.172    
     48000   1.1882255      325.5801      -220.41822     -30635.394    
     49000   1.1986373      324.19153      164.27337     -30649.876    
     50000   1.2030634      319.11673      856.95929     -30628.797    
     51000   1.207808       312.94715      602.01227     -30724.45     
     52000   1.2017452      321.48196     -419.61867     -30691.21     
     53000   1.2084784      316.2435      -282.29739     -30752.43     
     54000   1.199025       328.33894     -436.843       -30673.642    
     55000   1.2008908      329.21462     -427.80851     -30611.21     
     56000   1.2048025      332.37184      536.13431     -30558.606    
     57000   1.1986644      319.73299      26.837866     -30717.084    
     58000   1.1995557      323.19827     -518.89663     -30634.951    
     59000   1.2024695      306.17546     -113.28307     -30790.57     
     60000   1.2086249      325.57297      504.67589     -30633.372    
     61000   1.2004407      325.77977     -644.71138     -30705.729    
     62000   1.2100396      318.22268      1297.8743     -30745.624    
     63000   1.1958169      319.14459     -722.89469     -30838.671    
     64000   1.2093939      323.15312      254.93715     -30722.509    
     65000   1.2063085      313.86806      95.639713     -30782.539    
     66000   1.1990612      328.03439     -679.18731     -30646.265    
     67000   1.2158017      328.54897      1049.2882     -30652.442    
     68000   1.2159249      322.74327      246.99989     -30725.1      
     69000   1.2030481      327.6286       89.193242     -30597.298    
     70000   1.1986354      322.54954      361.44423     -30577.681    
     71000   1.1950654      311.93996      524.50246     -30740.487    
     72000   1.2029241      330.34449      799.65158     -30679.081    
     73000   1.1973549      317.55964      748.92506     -30721.178    
     74000   1.1959598      322.38184     -968.35596     -30782.539    
     75000   1.2001072      328.31929     -184.10708     -30683.841    
     76000   1.2099428      316.0454      -509.52925     -30773.17     
     77000   1.1909281      319.98969     -335.60982     -30621.933    
     78000   1.1993445      314.7946      -235.23478     -30689.947    
     79000   1.2058792      321.87702      262.45346     -30736.112    
     80000   1.1980433      317.05865     -69.351152     -30701.218    
     81000   1.2016514      321.67478      121.68953     -30740.501    
     82000   1.1984322      312.953       -3.0706102     -30811.865    
     83000   1.1969123      328.73209     -555.01239     -30700.659    
     84000   1.1985378      323.74866      76.087676     -30708.116    
     85000   1.2059393      331.24417      475.63904     -30606.908    
     86000   1.2016707      317.0001      -960.12866     -30763.678    
     87000   1.1970515      324.05198     -135.89835     -30683.271    
     88000   1.2049533      320.51463     -527.83279     -30696.99     
     89000   1.2004594      331.25326      712.83636     -30564.887    
     90000   1.1976377      330.47713     -709.38167     -30710.894    
     91000   1.2042678      332.27296      829.32761     -30479.156    
     92000   1.1933564      317.60152      544.98341     -30727.735    
     93000   1.2026379      327.27815      147.69289     -30635.496    
     94000   1.2010607      323.38353     -232.24667     -30698.515    
     95000   1.1988893      325.07201      269.34393     -30674.653    
     96000   1.204216       321.63485     -492.52812     -30745.142    
     97000   1.1970773      320.88302     -816.17506     -30724.656    
     98000   1.2090548      325.04596      504.41836     -30720.471    
     99000   1.2045525      315.05048     -173.6198      -30675.833    
    100000   1.2108672      327.0733       267.51095     -30636.724    
    101000   1.2125468      315.16251      159.3128      -30758.773    
    102000   1.1961136      322.35564     -1149.9919     -30719.59     
    103000   1.2050265      326.06564      476.2197      -30683.377    
    104000   1.1950893      322.13651     -427.80495     -30640.959    
    105000   1.1908897      321.76626      34.590405     -30678.856    
    106000   1.1967915      317.30668      27.816999     -30578.764    
    107000   1.1929365      320.87291      90.581699     -30613.188    
    108000   1.2042777      319.35774      15.366279     -30677.954    
    109000   1.2010076      320.18323      813.7084      -30684.637    
    110000   1.1904669      321.56989     -1340.0654     -30627.354    
    111000   1.200629       330.12494      312.28412     -30604.528    
    112000   1.1996921      320.87114      383.82214     -30645.326    
    113000   1.2101738      328.1305       585.12656     -30612.12     
    114000   1.2027834      320.2658       498.32963     -30652.808    
    115000   1.2042945      329.72         287.02313     -30535.101    
    116000   1.2013517      319.46786      642.2152      -30733.401    
    117000   1.204409       324.18782      133.28271     -30717.825    
    118000   1.2110812      318.91374      943.47708     -30784.872    
    119000   1.2021167      317.27457     -866.03453     -30770.273    
    120000   1.2073698      327.31309      319.21025     -30677.303    
    121000   1.2026341      323.89648      399.3549      -30602.658    
    122000   1.1965181      316.89595     -673.77986     -30664.086    
    123000   1.1964102      316.72795     -76.223307     -30732.825    
    124000   1.1894637      315.88755      19.189077     -30668.698    
    125000   1.204494       330.72956      1015.0167     -30619.372    
    126000   1.1997251      330.75078     -164.16255     -30549.552    
    127000   1.1967424      328.81146      350.11334     -30552.29     
    128000   1.206503       338.28702     -5.3882316     -30657.104    
    129000   1.2012437      317.66158     -91.125604     -30711.717    
    130000   1.1966691      333.08622      299.95505     -30557.636    
    131000   1.2009304      323.72003      37.263686     -30700.239    
    132000   1.2040048      321.74068      310.00319     -30661.463    
    133000   1.1917776      322.34566     -553.90088     -30480.914    
    134000   1.2047142      322.32457     -13.184632     -30593.032    
    135000   1.1973146      330.58006      107.50952     -30612.529    
    136000   1.1939128      330.56231     -277.29843     -30603.948    
    137000   1.2084254      330.41319      565.67681     -30545.254    
    138000   1.2083786      321.41458      658.3361      -30603.692    
    139000   1.2014725      322.31996     -475.94302     -30661.658    
    140000   1.1915299      318.79204     -1124.982      -30607.363    
    141000   1.2112759      326.0892       294.03041     -30717.932    
    142000   1.1968169      329.43022      403.94872     -30608.472    
    143000   1.197839       316.72345      357.50366     -30666.833    
    144000   1.1949268      321.92764     -113.37616     -30750.734    
    145000   1.2075291      320.75189      73.376226     -30761.53     
    146000   1.1918881      316.47758      519.59077     -30626.727    
    147000   1.216668       325.93862      999.37788     -30708.521    
    148000   1.1805534      319.55759     -1787.6957     -30681.232    
    149000   1.2067498      324.74322     -98.416425     -30591.127    
    150000   1.2001893      318.92617     -470.10718     -30619.736    
    151000   1.1960479      323.21437     -564.01285     -30588.076    
    152000   1.2139645      321.02619      1055.5385     -30741.456    
    153000   1.1949826      317.35048     -610.32526     -30768.17     
    154000   1.2042259      324.84734      346.41857     -30670.086    
    155000   1.2002781      325.12431      239.53734     -30724.088    
    156000   1.2030405      330.78447      690.7925      -30684.515    
    157000   1.1963711      311.91481      274.15204     -30808.11     
    158000   1.2054335      320.87789      537.78147     -30629.561    
    159000   1.1993553      318.00232     -357.43497     -30780.541    
    160000   1.2069989      315.19478     -192.39451     -30796.532    
    161000   1.1993283      318.98971     -940.5042      -30722.407    
    162000   1.2022615      327.95005     -591.9126      -30672.561    
    163000   1.1915915      340.02925     -696.5159      -30431.281    
    164000   1.1898672      325.10106      165.5631      -30575.15     
    165000   1.2011219      324.13931     -100.28874     -30644.255    
    166000   1.193852       318.15775     -411.41998     -30679.973    
    167000   1.2075731      332.84571      893.66869     -30620.898    
    168000   1.1962039      324.19663     -8.8937915     -30589.99     
    169000   1.2005821      322.36443     -527.60515     -30665.639    
    170000   1.2061431      324.1958       340.95813     -30689.617    
    171000   1.1921246      324.61158      91.8449       -30610.779    
    172000   1.1958424      326.44164      780.63329     -30610.261    
    173000   1.2024647      315.00064      630.22466     -30698.747    
    174000   1.1942424      323.69414     -748.82812     -30621.894    
    175000   1.1926994      338.86122     -402.61899     -30617.683    
    176000   1.2004309      321.99275      85.91797      -30670.991    
    177000   1.194417       323.98368      250.72888     -30658.604    
    178000   1.2114618      326.45253      155.71486     -30730.777    
    179000   1.1952661      323.84873     -792.46736     -30681.656    
    180000   1.2055406      315.8285       170.94542     -30745.241    
    181000   1.1962408      330.57535     -213.65879     -30591.096    
    182000   1.1992244      320.5767      -711.63604     -30619.94     
    183000   1.1942355      318.35754      341.17076     -30664.661    
    184000   1.1942319      318.85007     -521.55831     -30669.695    
    185000   1.2020832      332.08552      710.8072      -30553.626    
    186000   1.1989146      327.22473      231.02791     -30570.339    
    187000   1.1989213      314.32629     -1102.8416     -30738.208    
    188000   1.2125829      330.46813      711.73596     -30623.835    
    189000   1.1949647      310.42068     -1150.4589     -30766.091    
    190000   1.2047053      323.83591      568.10888     -30654.932    
    191000   1.2032391      320.43713      656.06321     -30582.128    
    192000   1.1915829      320.17279      190.13609     -30604.827    
    193000   1.1988131      329.2369       105.15675     -30645.456    
    194000   1.2011603      319.74374     -540.30492     -30744.425    
    195000   1.1975225      320.87755     -619.08833     -30674.656    
    196000   1.2019487      316.02057      789.50531     -30741.561    
    197000   1.1943985      320.07927     -162.52595     -30695.735    
    198000   1.2086776      317.71627      601.26289     -30709.4      
    199000   1.2015352      319.26282     -1121.9942     -30734.079    
    200000   1.209889       326.1075      -74.031871     -30646.626    
    201000   1.2066268      322.3311       226.30811     -30745.36     
    202000   1.1867629      321.44145     -512.71572     -30581.242    
    203000   1.217774       317.53363      859.19972     -30717.621    
    204000   1.1934116      314.68788     -414.27727     -30729.551    
    205000   1.2172179      318.97206      1273.0299     -30742.382    
    206000   1.1925417      325.7317      -102.91575     -30669.171    
    207000   1.2104431      317.43933      123.24091     -30749.413    
    208000   1.1994685      315.44368     -613.01034     -30745.623    
    209000   1.2022484      326.70303     -491.90422     -30528.455    
    210000   1.2044881      326.23281     -492.45594     -30627.334    
    211000   1.1981627      326.51397     -379.70934     -30705.244    
    212000   1.2113778      330.55419      415.5022      -30693.743    
    213000   1.1905236      324.38063     -595.42985     -30610.334    
    214000   1.1993881      329.01942      735.17474     -30712.03     
    215000   1.1996483      326.8039       564.45382     -30753.205    
    216000   1.1939147      323.82203      191.9713      -30652.179    
    217000   1.1943262      325.01525      345.1674      -30647.507    
    218000   1.1981778      320.61475     -1122.466      -30810.246    
    219000   1.2105231      321.55918     -199.98451     -30757.502    
    220000   1.2011132      313.00359     -47.005633     -30720.297    
    221000   1.2047293      327.29469      265.91474     -30697.57     
    222000   1.2081494      317.98724      307.0712      -30738.842    
    223000   1.1997093      322.25876     -67.043142     -30693.298    
    224000   1.1894088      323.59967     -397.81705     -30616.219    
    225000   1.198922       319.68945      413.7563      -30666.203    
    226000   1.1944392      336.02402      353.64431     -30571.612    
    227000   1.206816       336.35029      458.88022     -30651.479    
    228000   1.1993075      315.06496      311.80983     -30712.001    
    229000   1.198471       325.92382      356.17671     -30512.34     
    230000   1.1951397      321.2507      -585.47511     -30721.195    
    231000   1.2003221      324.01427      70.243593     -30753.834    
    232000   1.1991855      327.15688      519.1956      -30546.577    
    233000   1.1857596      325.09408     -1191.1418     -30631.969    
    234000   1.1949057      323.98272     -482.29646     -30676.587    
    235000   1.1970149      326.12275     -300.3528      -30735.083    
    236000   1.1942355      320.20672     -391.15177     -30776.632    
    237000   1.1981044      322.13528      56.595663     -30663.258    
    238000   1.1994017      325.61349      568.89074     -30632.003    
    239000   1.2014885      316.97029     -200.72819     -30697.671    
    240000   1.1963868      325.02893      335.65476     -30628.791    
    241000   1.199956       323.93608     -359.22461     -30610.638    
    242000   1.2096804      330.94667      1528.8261     -30605.617    
    243000   1.1942875      325.22253      61.089439     -30547.648    
    244000   1.20097        324.30519     -193.90082     -30542.496    
    245000   1.1963627      322.15512     -53.669351     -30632.764    
    246000   1.1895965      323.6386      -344.45756     -30706.943    
    247000   1.1960042      325.45243      614.70882     -30656.043    
    248000   1.1981946      330.2582       58.669782     -30582.615    
    249000   1.1977415      320.6094       150.87682     -30620.58     
    250000   1.1979864      318.74848      805.43413     -30607.372    
    251000   1.2016631      317.07607      218.30365     -30638.335    
    252000   1.2065132      317.43127      1074.5393     -30493.046    
    253000   1.1970409      323.05831     -398.93858     -30673.755    
    254000   1.2026568      325.96585      24.821225     -30709.797    
    255000   1.2018665      319.78491      106.80303     -30696.168    
    256000   1.1905797      310.00945     -1524.9135     -30815.262    
    257000   1.2045446      324.59593      217.00265     -30718.152    
    258000   1.1848061      313.17982     -633.85808     -30685.449    
    259000   1.1847584      322.33499     -443.61307     -30600.029    
    260000   1.1926087      324.04642      263.70497     -30679.267    
    261000   1.1959755      321.80609      27.100414     -30702.595    
    262000   1.204045       326.38915     -605.68249     -30634.521    
    263000   1.2124858      332.16582      186.02889     -30650.718    
    264000   1.1944877      329.45702     -267.52674     -30679.081    
    265000   1.2073607      333.9148       334.43988     -30574.108    
    266000   1.2029642      321.01216     -747.99563     -30641.405    
    267000   1.1976354      315.98919     -147.90056     -30787.024    
    268000   1.205347       324.32174     -511.05804     -30706.356    
    269000   1.1999107      314.6308      -405.39566     -30762.095    
    270000   1.2057012      330.71559      512.94962     -30610.485    
    271000   1.2017766      325.93645     -7.9843152     -30576.199    
    272000   1.2004603      319.16954     -363.97879     -30662.737    
    273000   1.1966467      315.80358     -502.66126     -30735.844    
    274000   1.2015653      320.1115      -377.9161      -30652.748    
    275000   1.2015608      326.32693      188.68453     -30715.622    
    276000   1.2046058      310.63992     -242.89518     -30864.349    
    277000   1.2019497      325.14868      252.91024     -30730.153    
    278000   1.2071415      328.29596      1248.1878     -30707.391    
    279000   1.1933124      320.60143      504.03315     -30743.969    
    280000   1.2016915      328.84507      287.38907     -30643.737    
    281000   1.1967318      319.26997     -505.17892     -30629.847    
    282000   1.2003361      323.26774      212.5524      -30644.908    
    283000   1.1914298      322.33559     -1025.8127     -30629.37     
    284000   1.2116629      318.13098      218.87243     -30756.948    
    285000   1.1983596      325.18371      118.17516     -30683.896    
    286000   1.2105064      316.82939     -277.13887     -30736.232    
    287000   1.1930294      320.8561      -585.42706     -30707.661    
    288000   1.2112228      322.7735      -469.61703     -30593.678    
    289000   1.1993722      318.83513      23.262513     -30658.906    
    290000   1.2021571      324.51131     -179.2474      -30587.253    
    291000   1.204641       321.23219      1313.4118     -30616.921    
    292000   1.1869293      315.09865     -533.54976     -30672.151    
    293000   1.2027097      325.87709      139.17376     -30696.785    
    294000   1.194236       323.61784     -836.44787     -30626.693    
    295000   1.2025256      325.68572     -306.96821     -30672.259    
    296000   1.1967878      321.31133     -1385.2211     -30733.659    
    297000   1.2028662      321.96949     -190.88945     -30716.031    
    298000   1.1987514      328.48835      532.81658     -30591.245    
    299000   1.1958641      318.8085       178.72191     -30766.03     
    300000   1.2009933      334.01943     -48.834285     -30590.109    
    301000   1.2057824      329.48599      333.79703     -30689.852    
    302000   1.1908795      326.49671     -1343.7064     -30606.977    
    303000   1.2059463      325.18348     -66.551968     -30677.581    
    304000   1.1990704      320.26993     -159.3272      -30608.839    
    305000   1.1940306      323.04574     -203.21486     -30628.002    
    306000   1.2113422      329.06046      760.04462     -30613.67     
    307000   1.2060441      326.18862      1216.12       -30679.225    
    308000   1.1969929      333.94723      193.72389     -30624.65     
    309000   1.2059332      322.36768      247.18777     -30673.052    
    310000   1.1951373      323.15166     -123.34148     -30626.756    
    311000   1.2008519      319.1362       422.6392      -30767.835    
    312000   1.1979676      319.966       -228.67794     -30691.547    
    313000   1.2008372      328.39286      698.16699     -30718.879    
    314000   1.2120042      325.97315      246.65029     -30687.24     
    315000   1.2081355      316.97602      571.67361     -30701.112    
    316000   1.2077809      329.26957      297.63473     -30592.509    
    317000   1.2060245      327.85276      140.63699     -30582.164    
    318000   1.2122551      317.11616      873.56978     -30672.183    
    319000   1.1916252      322.32729     -651.42694     -30627.859    
    320000   1.1992679      319.10792     -559.1303      -30733.628    
    321000   1.1925823      316.40564      809.22646     -30699.944    
    322000   1.2056751      327.3175       870.03476     -30600.737    
    323000   1.1917033      321.49405      177.15094     -30663.948    
    324000   1.2019188      321.20971      43.01411      -30739.338    
    325000   1.2101806      318.52675     -97.49375      -30740.64     
    326000   1.2020065      315.85191     -557.56753     -30777.999    
    327000   1.2011031      330.92091     -408.13045     -30602.138    
    328000   1.1966656      313.7376       72.902862     -30755.182    
    329000   1.1947018      319.43181      142.02783     -30702.452    
    330000   1.1912995      327.65288     -515.69134     -30613.429    
    331000   1.2072796      313.81842      377.65934     -30800.756    
    332000   1.1933664      315.49714     -213.9733      -30735.865    
    333000   1.200255       327.92692     -731.88158     -30573.712    
    334000   1.2037627      324.57172      1098.0767     -30712.408    
    335000   1.1947561      326.27105     -671.64605     -30635.289    
    336000   1.2063302      332.5903      -81.990213     -30555.76     
    337000   1.1930531      321.86448     -323.92418     -30588.799    
    338000   1.2073637      318.50944      401.51511     -30789.015    
    339000   1.2033853      328.78769     -341.00949     -30656.119    
    340000   1.196579       323.59951     -671.27455     -30656.798    
    341000   1.2100121      327.08323     -267.03616     -30673.36     
    342000   1.1920112      313.40493     -303.53761     -30699.181    
    343000   1.2012469      326.5004      -149.99608     -30613.175    
    344000   1.2064279      313.52807     -251.13695     -30788.119    
    345000   1.195372       320.53538     -30.796973     -30593.423    
    346000   1.2061958      316.18837      829.20626     -30633.733    
    347000   1.1939506      310.52323     -927.89777     -30755.828    
    348000   1.1982114      326.85649      37.970863     -30645.63     
    349000   1.1899099      328.0242      -1304.2258     -30616.84     
    350000   1.2067606      338.13313      753.63017     -30637.034    
    351000   1.1904362      331.85963     -620.16584     -30537.096    
    352000   1.1905176      320.26959      272.94091     -30648.015    
    353000   1.1960054      316.95405      426.52518     -30664.619    
    354000   1.1947336      330.40465     -52.234095     -30692.386    
    355000   1.1934669      318.86852     -504.929       -30734.978    
    356000   1.1906126      312.34908     -1150.791      -30681.602    
    357000   1.2030741      317.33815      273.3756      -30721.612    
    358000   1.2012704      321.37579      660.25719     -30684.724    
    359000   1.1975746      318.47616     -1083.2055     -30713.038    
    360000   1.1944687      320.18195     -92.003887     -30638.33     
    361000   1.2021401      327.01505      67.692679     -30712.889    
    362000   1.2133343      321.61162      514.19783     -30707.225    
    363000   1.1973198      317.16418     -785.6639      -30729.005    
    364000   1.2030136      330.02422      243.92934     -30587.523    
    365000   1.1962604      324.25272     -395.1631      -30561.068    
    366000   1.2000329      326.70477      419.56711     -30626.807    
    367000   1.1924843      321.19896     -206.76224     -30696.284    
    368000   1.1932602      324.91162     -980.90106     -30695.328    
    369000   1.202143       324.51422     -321.467       -30785.176    
    370000   1.202192       326.09784      60.849827     -30621.091    
    371000   1.2084859      325.97802      1418.2462     -30658.518    
    372000   1.1927807      324.65839     -861.3286      -30661.721    
    373000   1.2006465      322.07808     -2.363077      -30653.54     
    374000   1.2042382      313.42015      342.80691     -30728.283    
    375000   1.2084171      315.92096      150.69846     -30677.436    
    376000   1.2017835      325.12005     -271.44102     -30600.359    
    377000   1.1996352      321.84589     -418.16898     -30631.711    
    378000   1.2044516      314.39824      28.774388     -30756.617    
    379000   1.203985       331.63536      467.1901      -30575.802    
    380000   1.2125144      323.26557      848.9721      -30669.11     
    381000   1.1967769      320.1513      -538.21601     -30788.236    
    382000   1.2089532      329.85318      883.8259      -30621.028    
    383000   1.1946986      320.66725      351.82915     -30598.99     
    384000   1.2041183      321.92659      356.20452     -30728.856    
    385000   1.2089073      322.02884     -151.18747     -30728.517    
    386000   1.1935388      316.88083     -173.7524      -30731.224    
    387000   1.1954786      323.30855     -109.05071     -30654.311    
    388000   1.1906958      317.74023      343.78843     -30679.075    
    389000   1.1924434      326.66715     -43.430861     -30687.027    
    390000   1.2007693      312.25695      307.47949     -30696.57     
    391000   1.1869282      323.64195     -391.13568     -30690.571    
    392000   1.2095807      316.09469      163.43163     -30706.12     
    393000   1.2033982      317.65792     -124.93629     -30724.519    
    394000   1.2155856      313.52455      25.905429     -30734.785    
    395000   1.2040068      322.91762     -489.96957     -30669.812    
    396000   1.2015828      314.85366     -553.24853     -30721.07     
    397000   1.1980398      319.04847     -39.920446     -30659.879    
    398000   1.1940349      323.52052     -233.27397     -30683.407    
    399000   1.2089536      315.98641      227.23354     -30693.573    
    400000   1.1846848      328.41938     -1581.2994     -30618.625    
    401000   1.2012672      312.74299      183.88656     -30733.312    
    402000   1.2012665      330.99135      276.96663     -30634.7      
    403000   1.2003126      326.31646      232.16853     -30669.991    
    404000   1.1948655      331.39224      29.324023     -30615.757    
    405000   1.2074317      307.11419      35.79459      -30765.88     
    406000   1.2058408      312.39214      301.27884     -30786.358    
    407000   1.202679       317.19002     -416.66402     -30662.382    
    408000   1.2035946      326.89348      406.61284     -30733.6      
    409000   1.2000394      316.76864      355.44775     -30792.186    
    410000   1.1892721      329.78251     -229.39696     -30629.766    
    411000   1.1962643      331.38594     -88.009697     -30601.347    
    412000   1.1935688      324.30765     -166.21702     -30585.205    
    413000   1.1972066      320.84822     -387.79086     -30547.568    
    414000   1.1993467      327.19437     -118.04927     -30548.428    
    415000   1.1923501      317.26771     -613.98059     -30624.048    
    416000   1.204871       330.65602     -144.97195     -30636.894    
    417000   1.2105212      327.31463     -20.346766     -30645.118    
    418000   1.2040197      317.75582     -390.89755     -30652.955    
    419000   1.1938242      322.40568     -1186.3346     -30705.136    
    420000   1.2063723      321.86235      643.52333     -30641.686    
    421000   1.1981172      317.59147     -350.73031     -30719.49     
    422000   1.2021182      320.4542       14.128481     -30662.345    
    423000   1.196382       327.07894     -842.28906     -30620.019    
    424000   1.2063805      322.68948      1024.4843     -30760.566    
    425000   1.1956284      313.78548     -293.60206     -30670.414    
    426000   1.2075509      326.35175      464.4658      -30697.46     
    427000   1.2135185      321.58831      868.55049     -30662.751    
    428000   1.1915127      326.91578     -1207.1848     -30606.817    
    429000   1.2046199      321.65269      932.7988      -30695.004    
    430000   1.1991251      327.28461      262.84085     -30586.539    
    431000   1.2115653      316.61598      236.45869     -30781.008    
    432000   1.2045302      321.87762     -497.02391     -30705.597    
    433000   1.2042911      319.4749       391.59252     -30667.871    
    434000   1.2133787      320.00522      533.04847     -30657.411    
    435000   1.2043485      334.30989     -1048.3356     -30549.073    
    436000   1.2037559      331.82446      889.44555     -30580.813    
    437000   1.2031755      323.61683      353.86824     -30674.069    
    438000   1.2152095      322.72338      816.23477     -30704.329    
    439000   1.1922442      327.38539     -998.44737     -30589.632    
    440000   1.2031201      314.96548      568.76103     -30754.942    
    441000   1.1923368      326.63703     -1.3289107     -30560.836    
    442000   1.2025984      316.2928      -743.57318     -30714.994    
    443000   1.2080505      320.16099     -37.457457     -30680.433    
    444000   1.1991311      317.39508     -880.33239     -30658.173    
    445000   1.1991288      325.86839      433.16115     -30606.43     
    446000   1.1988178      323.16337     -947.81864     -30697.838    
    447000   1.1979578      316.65787     -737.30039     -30775.019    
    448000   1.1900943      323.07272     -754.86674     -30643.929    
    449000   1.2019463      316.96511      1341.9889     -30735.857    
    450000   1.199567       320.6677       285.31859     -30696.471    
    451000   1.1930678      318.13029     -3.1234157     -30658.427    
    452000   1.2067128      321.89452      733.21938     -30665.123    
    453000   1.2012497      318.95524      310.46257     -30686.411    
    454000   1.2014117      328.21124     -153.47242     -30646.048    
    455000   1.1882149      332.6422      -1195.653      -30579.751    
    456000   1.202433       317.21058     -346.28688     -30779.213    
    457000   1.1960945      326.03229      206.97446     -30550.268    
    458000   1.1923084      320.79571     -387.95556     -30689.207    
    459000   1.2001595      324.65045      256.71938     -30608.762    
    460000   1.2112864      324.95678      1674.8218     -30611.514    
    461000   1.1945465      321.05023     -76.262414     -30658.96     
    462000   1.2119751      324.68371      1583.7006     -30696.32     
    463000   1.1891764      334.94016     -316.95202     -30556.899    
    464000   1.2057547      333.78141      571.86946     -30668.46     
    465000   1.204132       332.9034      -117.66915     -30608.544    
    466000   1.2116393      320.06389      638.25887     -30756.996    
    467000   1.190433       329.41234     -236.09026     -30555.93     
    468000   1.2010157      325.72142      31.577111     -30682.861    
    469000   1.1965327      330.59327     -473.18342     -30558.112    
    470000   1.2019473      321.67683     -111.38848     -30689.085    
    471000   1.2114689      325.75087      419.952       -30694.328    
    472000   1.1981325      325.29545     -414.30806     -30567.759    
    473000   1.2024215      317.88658     -290.44492     -30744.713    
    474000   1.2045448      331.56199      1037.448      -30719.447    
    475000   1.1969482      314.31318     -930.76919     -30864.838    
    476000   1.2016444      321.03896     -910.64647     -30716.816    
    477000   1.2019787      324.30426      673.30861     -30674.882    
    478000   1.1927601      329.40935     -228.1155      -30632.26     
    479000   1.1950053      319.50208     -152.01943     -30664.157    
    480000   1.2017939      322.45167      183.95059     -30655.504    
    481000   1.1932637      314.75934     -1146.5078     -30748.571    
    482000   1.207801       338.79017      870.94382     -30540.92     
    483000   1.1959018      324.5675       224.16234     -30569.453    
    484000   1.2085982      318.71539     -389.44016     -30702.209    
    485000   1.1952482      324.6535      -453.12262     -30577.23     
    486000   1.1995154      329.53286     -250.32443     -30609.467    
    487000   1.19008        334.02477     -706.26644     -30609.987    
    488000   1.2005029      324.65307      71.868504     -30601.896    
    489000   1.1972128      324.50692      62.494622     -30632.415    
    490000   1.1993323      324.83067      465.54797     -30658.864    
    491000   1.2030185      328.02949     -168.26354     -30586.061    
    492000   1.2008543      340.20787     -574.09944     -30627.299    
    493000   1.2050982      315.23362      478.39139     -30699.78     
    494000   1.2104508      321.2874       320.06365     -30732.802    
    495000   1.2060468      335.87658      564.73811     -30464.178    
    496000   1.1966086      320.48104     -52.787449     -30610.285    
    497000   1.2062672      332.38089     -184.54434     -30577.705    
    498000   1.1899546      332.19017     -473.32545     -30582.822    
    499000   1.210396       309.65032      782.64929     -30766.743    
    500000   1.2069981      320.34393      943.69786     -30633.285    
    501000   1.2011032      319.90498      541.8678      -30670.655    
    502000   1.2072129      315.31876      5.9082589     -30767.706    
    503000   1.200716       324.81534      3.9417657     -30691.764    
    504000   1.1934644      324.32179     -627.66929     -30647.71     
    505000   1.2042378      322.08177      10.258943     -30725.921    
    506000   1.1981752      324.39495      236.54027     -30621.584    
    507000   1.1982961      324.25271     -662.30593     -30682.638    
    508000   1.1911448      338.15561     -579.6409      -30521.424    
    509000   1.2140448      319.17697      746.11376     -30740.25     
    510000   1.1918437      321.91196     -89.302929     -30565.068    
    511000   1.2029227      325.28019      1150.6652     -30619.066    
    512000   1.1910618      326.4428      -449.81521     -30593.02     
    513000   1.2121175      322.74467     -216.26296     -30614.29     
    514000   1.1829219      336.62685     -633.42469     -30588.583    
    515000   1.2100415      311.06889     -99.871181     -30716.775    
    516000   1.1897499      327.37181     -370.40183     -30607.289    
    517000   1.2028904      319.17972     -197.98685     -30710.721    
    518000   1.1936853      317.93568     -327.12708     -30638.794    
    519000   1.2077114      332.7868       522.53335     -30599.194    
    520000   1.1876142      309.23834      31.150364     -30762.851    
    521000   1.1896453      314.50399     -512.94486     -30739.188    
    522000   1.2037629      332.94096      291.40085     -30575.717    
    523000   1.1914595      316.87249     -195.17838     -30551.899    
    524000   1.2043037      324.78383      443.53503     -30728.098    
    525000   1.2025482      316.37173     -592.84174     -30781.062    
    526000   1.1983728      328.79149     -2.1189327     -30596.001    
    527000   1.2026055      336.31472      567.00291     -30583.266    
    528000   1.2052277      324.46167      612.34637     -30737.59     
    529000   1.1975858      328.89461      68.785549     -30514.572    
    530000   1.1932939      318.16641     -603.10871     -30739.95     
    531000   1.1952283      324.89232     -212.84568     -30683.907    
    532000   1.1944354      329.93134     -389.94829     -30585.108    
    533000   1.1989231      325.58784      531.47619     -30627.979    
    534000   1.1929706      322.11347      194.04969     -30735.331    
    535000   1.198821       327.67516     -696.23281     -30581.382    
    536000   1.1951842      317.53025     -1.4432936     -30699.655    
    537000   1.1910335      322.48668     -591.01985     -30647.175    
    538000   1.201033       323.84493      440.65811     -30675.098    
    539000   1.1879414      320.93222     -296.3194      -30678.516    
    540000   1.1991528      324.00733      376.9158      -30684.519    
    541000   1.1941654      314.60399     -276.89249     -30684.546    
    542000   1.2126413      331.48693      441.66665     -30587.088    
    543000   1.2006764      326.05446      406.76816     -30593.421    
    544000   1.2008176      319.64261     -631.57548     -30690.055    
    545000   1.1946628      323.20837     -706.52416     -30596.338    
    546000   1.2052721      314.73146     -1655.9354     -30747.248    
    547000   1.2089443      318.38198      401.08625     -30733.385    
    548000   1.1958321      325.81776     -1011.0599     -30699.853    
    549000   1.2073927      319.51626      608.44984     -30774.659    
    550000   1.2157989      328.74145      491.16261     -30705.072    
    551000   1.1986245      320.19842     -131.7048      -30759.471    
    552000   1.2015777      309.0921      -155.45247     -30823.265    
    553000   1.2119686      322.44088      564.05619     -30743.303    
    554000   1.1955445      325.34561      275.65769     -30662.841    
    555000   1.1939246      316.86039      545.92439     -30673.996    
    556000   1.1939068      321.20869     -402.07272     -30776.25     
    557000   1.2016142      324.54377     -498.21361     -30701.713    
    558000   1.2086227      323.26015      444.52087     -30739.695    
    559000   1.1965354      334.45685      155.19658     -30642.571    
    560000   1.2027824      325.23152      272.17495     -30627.712    
    561000   1.1898517      315.29626     -394.57872     -30730.139    
    562000   1.1990121      325.55653      648.61812     -30652.446    
    563000   1.1954156      315.94017      656.96451     -30703.389    
    564000   1.2063397      321.70356      1346.4049     -30734.843    
    565000   1.2012073      321.18985      53.103778     -30678.87     
    566000   1.1959777      320.22924     -174.6624      -30664.051    
    567000   1.2018487      323.21466      505.18836     -30640.908    
    568000   1.1847652      323.94926     -915.00704     -30682.62     
    569000   1.1940352      316.95456     -844.4883      -30700.025    
    570000   1.2000776      323.08859      457.28297     -30661.465    
    571000   1.2083016      325.91757      72.973446     -30673.338    
    572000   1.1857384      317.17572     -1478.6459     -30664.544    
    573000   1.1965893      327.13736     -270.97547     -30659.722    
    574000   1.2019665      320.31166     -1.4839804     -30649.941    
    575000   1.1981982      325.63121      64.120591     -30662.02     
    576000   1.1971681      325.43098      431.65791     -30654.283    
    577000   1.200563       326.33887     -51.702644     -30672.364    
    578000   1.1925332      323.85818     -470.04249     -30675.237    
    579000   1.1991478      318.39485      309.26054     -30689.557    
    580000   1.1863152      324.14908     -99.971967     -30599.239    
    581000   1.1945607      320.7056       14.092892     -30668.628    
    582000   1.1966558      316.16532      446.86218     -30664.96     
    583000   1.1904353      317.56562      380.51402     -30617.136    
    584000   1.2017173      326.3599      -47.80012      -30715.378    
    585000   1.1996032      316.1321       580.93403     -30632.873    
    586000   1.1968661      322.15723      531.35589     -30603.968    
    587000   1.2013275      326.01116      470.70532     -30678.889    
    588000   1.1963123      314.7713      -938.33808     -30724.413    
    589000   1.1990704      322.83944      61.182232     -30634.13     
    590000   1.1921571      320.86122     -44.315016     -30655.318    
    591000   1.21089        324.54784      816.62055     -30688.459    
    592000   1.1953749      327.56351      62.122054     -30634.275    
    593000   1.200174       321.66614     -197.08412     -30681.857    
    594000   1.1996921      315.95951     -201.37559     -30692.481    
    595000   1.2009615      319.41371      402.61392     -30550.484    
    596000   1.2012424      316.91365     -157.65852     -30750.755    
    597000   1.1868425      331.6021      -1603.6389     -30552.672    
    598000   1.2113899      327.64764      1467.0583     -30700.025    
    599000   1.1877979      327.79438     -181.78788     -30519.904    
    600000   1.2115774      319.77804      204.88478     -30752.122    
    601000   1.1921075      312.50233      162.3852      -30746.704    
    602000   1.2029052      326.33434      641.54045     -30606.24     
    603000   1.2021419      323.71592      1298.5947     -30583.903    
    604000   1.1956108      320.67633     -103.27494     -30582.571    
    605000   1.2041864      323.53866     -464.63883     -30660.374    
    606000   1.2003537      319.61339     -771.68068     -30624.257    
    607000   1.2101007      325.5268       142.81193     -30620.115    
    608000   1.2010732      319.79911      179.93403     -30664.107    
    609000   1.1938376      335.74569     -434.10235     -30592.982    
    610000   1.2050531      321.09058      52.791084     -30661.903    
    611000   1.203765       315.70193      133.40917     -30708.473    
    612000   1.1816963      332.62756     -1321.9661     -30574.999    
    613000   1.2060891      319.05049      164.58367     -30696.338    
    614000   1.193995       324.45416     -96.154103     -30594.452    
    615000   1.19492        333.70547     -516.65248     -30562.829    
    616000   1.2003958      319.05905     -61.245004     -30593.351    
    617000   1.2024628      329.27386     -47.999023     -30638.006    
    618000   1.1950477      316.93791      407.601       -30699.452    
    619000   1.2033397      319.89946     -46.867236     -30677.861    
    620000   1.1938432      327.74851      115.04972     -30582.902    
    621000   1.1989221      322.89731      226.8316      -30704.292    
    622000   1.1897389      323.86231     -655.18442     -30752.124    
    623000   1.2022539      315.7084      -727.28209     -30744.364    
    624000   1.2102689      325.12089      980.88016     -30629.51     
    625000   1.199421       318.21783      946.34252     -30615.557    
    626000   1.205544       326.99017      29.591605     -30593.529    
    627000   1.2030327      320.23233      694.32718     -30680.173    
    628000   1.2017405      325.44429     -1014.7664     -30679.202    
    629000   1.1966668      324.2754      -855.39059     -30684.206    
    630000   1.2031751      333.07935      1284.8163     -30609.472    
    631000   1.1966868      315.83364     -19.878419     -30751.687    
    632000   1.2103999      326.18012      947.53848     -30607.297    
    633000   1.2043932      335.60688      54.749107     -30624.62     
    634000   1.2029312      321.20251     -150.27379     -30719.185    
    635000   1.2103711      329.3058      -20.749332     -30633.307    
    636000   1.2042541      340.73839     -586.96384     -30572.003    
    637000   1.2155728      318.62303      713.06327     -30755.518    
    638000   1.1990517      323.45159     -190.90003     -30654.586    
    639000   1.2192098      321.14518      325.03481     -30665.025    
    640000   1.1972683      326.21666      63.503039     -30506.086    
    641000   1.1931561      323.43567     -241.23214     -30633.745    
    642000   1.2054653      326.83423      423.88792     -30690.378    
    643000   1.1965839      324.73856     -182.31057     -30709.746    
    644000   1.2028335      326.76283      307.90006     -30623.257    
    645000   1.2057487      316.3453      -493.38555     -30710.454    
    646000   1.2039222      326.74839      988.22616     -30613.155    
    647000   1.1997322      321.83014     -683.98123     -30649.594    
    648000   1.2016869      320.00255      1001.1082     -30723.676    
    649000   1.1922453      321.68723     -841.12536     -30699.903    
    650000   1.197364       327.88508     -150.88061     -30649.388    
    651000   1.1948912      319.32632      11.311797     -30671.616    
    652000   1.1950651      319.66716     -632.11836     -30718.576    
    653000   1.1966473      324.0078       869.23509     -30667.669    
    654000   1.1948527      322.96337     -514.57396     -30619.491    
    655000   1.20003        329.02871     -48.030482     -30693.44     
    656000   1.195174       320.34692     -367.28965     -30653.215    
    657000   1.2056832      321.59415      928.30208     -30718.756    
    658000   1.1955211      328.96243     -302.89614     -30622.575    
    659000   1.2035887      318.99612      467.4313      -30694.237    
    660000   1.1945448      319.21361     -175.44271     -30651.255    
    661000   1.202592       321.75706      344.90551     -30663.705    
    662000   1.2040973      330.63756     -518.40469     -30661.797    
    663000   1.2067083      325.91487      141.90573     -30539.937    
    664000   1.1963845      320.77954     -757.14657     -30665.735    
    665000   1.1983463      318.80408     -657.18715     -30692.883    
    666000   1.1983659      311.62415      185.13219     -30755.012    
    667000   1.1973704      320.5078       98.36384      -30708.512    
    668000   1.2029281      320.96753     -248.78523     -30699.132    
    669000   1.1930491      321.33494     -1169.7269     -30777.112    
    670000   1.2102975      310.10503      757.81554     -30824.854    
    671000   1.1958153      321.6331      -782.57156     -30662.845    
    672000   1.205203       316.17113      277.19432     -30737.223    
    673000   1.2037156      317.71652     -427.71854     -30711.288    
    674000   1.2105984      330.5757       123.61704     -30538.849    
    675000   1.2014769      325.69132      79.510298     -30584.79     
    676000   1.2073726      328.4945      -627.76299     -30647.659    
    677000   1.2038659      327.28058      234.17931     -30587.242    
    678000   1.1971596      323.09788      93.59335      -30588.441    
    679000   1.202473       323.21964      338.90559     -30615.887    
    680000   1.2075238      318.87873      1715.474      -30738.801    
    681000   1.1987561      319.54482      515.05765     -30669.39     
    682000   1.2009746      321.60354     -104.71005     -30619.866    
    683000   1.2001601      337.24015      111.99664     -30574.65     
    684000   1.2119806      327.45191      1145.3596     -30631.023    
    685000   1.2009856      327.04165     -619.12507     -30600.211    
    686000   1.2130079      318.81985      332.11312     -30638.39     
    687000   1.1978943      318.1747      -640.36957     -30667.798    
    688000   1.2097426      327.76372      305.82281     -30584.217    
    689000   1.2101664      329.08224     -268.32397     -30576.077    
    690000   1.2118907      324.35527     -252.09102     -30662.724    
    691000   1.2124684      322.81424     -842.07416     -30681.212    
    692000   1.224167       323.20043      1789.0364     -30683.554    
    693000   1.2033974      317.76674     -885.06109     -30759.368    
    694000   1.2096699      327.809        116.45535     -30637.104    
    695000   1.1956032      323.42753     -112.82518     -30671.074    
    696000   1.2056394      316.8428      -921.12901     -30781.981    
    697000   1.2034905      336.02211     -562.92719     -30536.336    
    698000   1.2059724      327.63585     -461.73315     -30702.863    
    699000   1.1938001      328.75608     -650.96678     -30545.191    
    700000   1.2034352      316.34453      631.5809      -30764.053    
    701000   1.1933744      321.2253      -417.50698     -30722.412    
    702000   1.207242       324.10607      385.9827      -30659.263    
    703000   1.1988682      320.12731      450.32088     -30634.654    
    704000   1.2046675      321.6744       923.86878     -30756.302    
    705000   1.1906013      318.8494      -529.82046     -30585.4      
    706000   1.2019072      323.37944     -101.96347     -30710.168    
    707000   1.1974519      316.30173     -118.50546     -30811.564    
    708000   1.1981858      329.22393     -507.3443      -30689.6      
    709000   1.1983688      322.32318     -175.03783     -30659.935    
    710000   1.2028556      325.84239      395.59003     -30644.441    
    711000   1.203536       322.10811     -413.57826     -30769.244    
    712000   1.2004209      330.15558      36.016318     -30525.884    
    713000   1.1981842      314.92792     -68.27213      -30740.746    
    714000   1.1960364      323.82833     -75.996008     -30643.889    
    715000   1.1961386      326.42632     -308.89798     -30689.995    
    716000   1.2063112      316.97732     -215.74623     -30667.938    
    717000   1.1947469      326.71738      580.94646     -30625.953    
    718000   1.2075202      334.11915      534.93234     -30600.687    
    719000   1.2016886      314.54764      390.25912     -30757.034    
    720000   1.2055411      324.7934       931.61924     -30652.984    
    721000   1.2049548      320.03407      157.8719      -30576.698    
    722000   1.1998142      311.72717     -894.36379     -30709.471    
    723000   1.2164377      312.99148      836.08768     -30869.52     
    724000   1.1882523      321.98487     -940.11453     -30680.339    
    725000   1.19909        327.15538      424.32222     -30642.669    
    726000   1.1944193      315.95068      2.0901597     -30691.805    
    727000   1.1981832      330.87408      119.57175     -30650.412    
    728000   1.2114118      321.14613      716.83195     -30736.572    
    729000   1.2024226      339.38475     -265.01766     -30537.3      
    730000   1.2176462      324.88449      435.34175     -30654.416    
    731000   1.2079708      325.89099      413.5732      -30658.202    
    732000   1.1954619      317.5566       286.01459     -30634.935    
    733000   1.2064794      325.59209      508.79365     -30596.724    
    734000   1.1988187      317.33735     -1342.0124     -30674.577    
    735000   1.2051443      318.13932     -438.05909     -30791.035    
    736000   1.1971259      321.67553      466.07913     -30588.643    
    737000   1.1926454      316.68437      141.50234     -30691.965    
    738000   1.2041525      320.58167      13.74001      -30774.117    
    739000   1.2037163      322.1593      -9.6309864     -30784.64     
    740000   1.2071307      324.77782      487.47114     -30642.815    
    741000   1.1980018      319.66182      106.16156     -30696.477    
    742000   1.20902        322.90841      451.9194      -30601.778    
    743000   1.1885505      324.26716     -1211.4201     -30622.869    
    744000   1.209469       329.42801      659.93094     -30672.104    
    745000   1.1947235      316.23398      501.62898     -30669.306    
    746000   1.2061455      320.37181      359.06506     -30624.698    
    747000   1.2023342      321.46363     -111.99989     -30743.28     
    748000   1.1970152      322.14075      203.66715     -30622.142    
    749000   1.1909725      317.44827     -71.480473     -30657.037    
    750000   1.199953       326.08426     -155.27584     -30651.401    
    751000   1.2017555      305.82958     -162.4646      -30814.307    
    752000   1.2015407      323.28669     -273.269       -30712.326    
    753000   1.203382       328.09637      73.461601     -30674.504    
    754000   1.1920857      322.53663      457.35719     -30639.12     
    755000   1.195276       320.60636      231.00962     -30667.381    
    756000   1.1867096      315.78472     -752.46012     -30635.729    
    757000   1.1999134      321.20664      196.18562     -30573.083    
    758000   1.2045334      327.72198      694.49063     -30576.383    
    759000   1.1990397      321.83981     -1088.1834     -30698.993    
    760000   1.199692       330.84057      131.96341     -30627.134    
    761000   1.1899226      321.40452      148.45442     -30707.609    
    762000   1.2110132      320.45822      1126.7464     -30723.36     
    763000   1.177264       314.15531     -1209.2598     -30664.459    
    764000   1.2062981      324.74905      199.72203     -30670.141    
    765000   1.1947714      324.88447     -227.46151     -30710.688    
    766000   1.1960299      314.71573     -442.4739      -30727.384    
    767000   1.201585       315.0895       240.53896     -30746.387    
    768000   1.198495       325.53695     -872.40281     -30655.296    
    769000   1.2009484      329.74232      69.648905     -30581.165    
    770000   1.2061435      311.68028      661.11011     -30736.708    
    771000   1.2027635      325.64278     -457.09734     -30661.485    
    772000   1.1964969      320.38513     -64.787952     -30649.54     
    773000   1.204464       316.3112       230.92207     -30682.353    
    774000   1.2056472      329.98923      342.49327     -30586.588    
    775000   1.1960769      332.23135     -356.63181     -30627.592    
    776000   1.1938868      319.23004      282.66236     -30682.689    
    777000   1.2012945      323.65076      815.07487     -30659.558    
    778000   1.1980436      323.17475      120.14172     -30621.144    
    779000   1.1962189      317.66067     -1020.1701     -30720.051    
    780000   1.1972396      320.59455      196.02576     -30669.437    
    781000   1.1947223      328.66808      62.964236     -30596.179    
    782000   1.2084267      323.98987      730.31725     -30820.792    
    783000   1.199906       327.53567     -221.0601      -30696.238    
    784000   1.1850894      319.73668     -161.35882     -30611.688    
    785000   1.1902822      317.90555      128.35914     -30742.951    
    786000   1.1831407      327.05567     -1065.1219     -30582.266    
    787000   1.2070533      330.29327     -186.99844     -30621.63     
    788000   1.2014993      331.05594      80.468465     -30628.647    
    789000   1.191306       326.40388     -626.78836     -30630.517    
    790000   1.2044604      310.52661     -203.03137     -30729.229    
    791000   1.2030341      331.47584     -374.62034     -30557.595    
    792000   1.2037217      333.3501       124.09538     -30555.062    
    793000   1.2064812      315.45493     -226.57572     -30752.898    
    794000   1.201175       320.8728       161.87802     -30651.239    
    795000   1.1986878      317.628        600.48611     -30684.019    
    796000   1.1997855      312.99703     -732.01211     -30800.001    
    797000   1.1944134      327.04054     -166.70097     -30624.651    
    798000   1.2001377      324.37248     -185.57654     -30633.837    
    799000   1.1978033      313.87239      306.29304     -30637.196    
    800000   1.1941363      321.17946     -2.4093308     -30676.918    
    801000   1.1959124      326.88628      322.11284     -30561.581    
    802000   1.1968655      324.92054     -97.203451     -30641.75     
    803000   1.192594       333.51783     -70.193852     -30499.847    
    804000   1.1901034      333.8907      -105.63986     -30550.833    
    805000   1.2034964      321.80925     -100.17129     -30617.166    
    806000   1.2028201      323.44669      326.08673     -30632.756    
    807000   1.2022167      318.57625      208.47739     -30698.095    
    808000   1.1950552      324.05934     -195.14652     -30606.809    
    809000   1.1958521      331.93359     -376.36236     -30572.476    
    810000   1.1940136      324.02173     -1103.4844     -30625.147    
    811000   1.1932981      316.61675     -300.57459     -30689.171    
    812000   1.2084961      338.67795      1025.2252     -30544.109    
    813000   1.195241       324.6209      -494.42304     -30605.672    
    814000   1.2013172      326.58992      103.21538     -30680.512    
    815000   1.1909661      322.02776     -100.78227     -30656.497    
    816000   1.1918816      328.20289     -827.5168      -30641.364    
    817000   1.2049451      322.36236     -109.10133     -30726.345    
    818000   1.1962194      318.32738      367.58076     -30733.562    
    819000   1.2104367      318.21656      493.175       -30729.918    
    820000   1.2082461      321.75265      728.83916     -30694.36     
    821000   1.19554        328.48211     -339.34513     -30668.021    
    822000   1.2023214      323.4891      -268.56598     -30753.187    
    823000   1.2014394      313.68844     -290.54898     -30800.045    
    824000   1.2023889      315.92924     -417.02583     -30693.708    
    825000   1.1988482      319.48033     -597.04452     -30707.189    
    826000   1.2105909      323.14577      437.98712     -30628.482    
    827000   1.1863475      319.88144     -709.22984     -30597.267    
    828000   1.1998892      327.01324     -676.76164     -30678.473    
    829000   1.2121576      314.89354     -23.704463     -30760.139    
    830000   1.1923051      333.50942     -1242.9016     -30576.018    
    831000   1.2047782      309.69091      659.67984     -30751.407    
    832000   1.1934139      323.83673     -858.70417     -30657.409    
    833000   1.1938074      318.58074     -1072.9586     -30699.835    
    834000   1.2078579      320.0227      -56.32254      -30733.669    
    835000   1.2061251      315.40951      607.53353     -30658.628    
    836000   1.2106316      321.58122     -528.53791     -30724.808    
    837000   1.193124       324.04951     -640.1233      -30593.36     
    838000   1.2070072      329.81241      308.20667     -30711.242    
    839000   1.1984906      324.1586      -655.20217     -30607.528    
    840000   1.2010763      327.67046      327.91656     -30709.755    
    841000   1.207783       322.65122      34.38714      -30745.245    
    842000   1.2019709      323.1016       6.4949132     -30641.152    
    843000   1.2018197      321.38308      131.60191     -30700.568    
    844000   1.2147219      327.70934      923.32336     -30550.879    
    845000   1.2013951      308.69445     -360.42319     -30766.69     
    846000   1.2082788      325.44383      556.3955      -30684.865    
    847000   1.2102317      324.01981      476.62614     -30779.729    
    848000   1.2180062      319.5224       210.59434     -30761.871    
    849000   1.2062272      327.13265      195.18095     -30679.118    
    850000   1.2148632      325.53985      801.768       -30656.142    
    851000   1.2096656      322.55052      767.69978     -30626.47     
    852000   1.1960966      315.19378     -1444.2091     -30727.068    
    853000   1.2064375      321.48673      230.1709      -30725.993    
    854000   1.1978726      316.90193     -399.62664     -30729.468    
    855000   1.1953947      327.95589     -110.56662     -30638.269    
    856000   1.2072971      333.32108     -1202.3676     -30584.288    
    857000   1.1998003      321.61068      434.21587     -30640.901    
    858000   1.2015131      323.91045      2.1849855     -30601.79     
    859000   1.1924882      316.46243     -114.58779     -30727.017    
    860000   1.209801       318.56888      364.42167     -30687.393    
    861000   1.1963712      320.11471      114.4301      -30543.857    
    862000   1.1956608      305.58005     -627.07458     -30754.98     
    863000   1.2121062      319.75826      1014.5328     -30672.159    
    864000   1.1959108      322.65099     -756.11325     -30692.556    
    865000   1.2123888      322.12301      506.05348     -30750.661    
    866000   1.1998558      322.37336     -378.00196     -30652.017    
    867000   1.2138902      327.41717      191.44986     -30627.125    
    868000   1.198268       320.63675     -763.81997     -30656.128    
    869000   1.211754       310.05338      45.056216     -30847.966    
    870000   1.2042584      321.09037      440.76814     -30754.711    
    871000   1.1928751      321.93817     -531.39408     -30563.81     
    872000   1.2007717      320.69514     -223.81963     -30704.145    
    873000   1.2005646      325.52927      622.1741      -30665.135    
    874000   1.2006282      332.04215      470.05519     -30581.419    
    875000   1.2056658      323.7104       1036.1008     -30701.634    
    876000   1.2057557      321.84395     -544.74816     -30763.409    
    877000   1.1979455      326.75923     -542.48236     -30734.238    
    878000   1.2070055      323.10674      857.70048     -30691.351    
    879000   1.1883541      320.09841     -980.314       -30698.29     
    880000   1.2104964      317.28526      908.67815     -30781.467    
    881000   1.1967084      314.34445      270.98474     -30793.389    
    882000   1.2115984      325.64124     -241.50086     -30687.683    
    883000   1.1882774      324.48512     -941.29265     -30585.211    
    884000   1.2128642      315.36572      228.42215     -30758.245    
    885000   1.2000748      328.22182      124.81151     -30589.693    
[...]
   9745000   1.2068225      332.3771       799.71896     -30667.229    
   9746000   1.2053075      314.91049      954.07076     -30739.798    
   9747000   1.2040564      329.23151      55.910856     -30596.401    
   9748000   1.2078178      320.97988     -443.62354     -30681.194    
   9749000   1.2023508      327.05925     -135.92328     -30684.512    
   9750000   1.1854506      327.226       -219.51209     -30619.618    
   9751000   1.2065139      321.18084     -78.438035     -30766.808    
   9752000   1.2009359      327.78868     -112.60494     -30648.693    
   9753000   1.2082358      321.83243      983.89441     -30721.942    
   9754000   1.1932482      327.51395      8.3004896     -30614.851    
   9755000   1.2017797      318.23671     -158.20659     -30644.458    
   9756000   1.2071091      323.38727      29.192844     -30653.266    
   9757000   1.1850026      312.97859     -803.95834     -30658.603    
   9758000   1.2040939      326.5923       869.78475     -30659.128    
   9759000   1.1791807      313.47534      239.57052     -30583.337    
   9760000   1.1961016      318.17437     -209.32781     -30732.913    
   9761000   1.1848547      320.63376     -1176.8544     -30591.512    
   9762000   1.2036602      323.60556     -342.76904     -30706.16     
   9763000   1.2002976      328.36693      114.16655     -30633.848    
   9764000   1.2033275      321.66618     -13.957515     -30674.83     
   9765000   1.2063651      329.69496      970.82055     -30587.837    
   9766000   1.1923365      312.94563     -540.1765      -30691.82     
   9767000   1.2005914      314.90079     -187.89366     -30674.779    
   9768000   1.1990731      314.38889     -272.27783     -30766.507    
   9769000   1.1938391      325.08943     -254.08545     -30622.738    
   9770000   1.198094       319.97021      2.6504346     -30723.512    
   9771000   1.1944718      317.64246      170.36834     -30707.232    
   9772000   1.2105885      331.7075       1082.3696     -30647.158    
   9773000   1.1919599      327.64202      209.0304      -30599.787    
   9774000   1.1940976      322.84843     -115.55974     -30673.635    
   9775000   1.1992876      320.1508      -926.0628      -30698.381    
   9776000   1.2078713      332.20046     -385.93974     -30600.999    
   9777000   1.2083308      331.37595     -442.43305     -30677.859    
   9778000   1.1992467      319.307       -424.29824     -30678.187    
   9779000   1.2068267      317.04719      841.31588     -30744.144    
   9780000   1.1969144      318.91229      258.50459     -30731.653    
   9781000   1.2034964      321.97905      413.2067      -30586.408    
   9782000   1.1934486      320.00181     -144.45153     -30728.858    
   9783000   1.2065882      329.50294      1096.9189     -30637.383    
   9784000   1.1970531      311.91753      268.97366     -30657.706    
   9785000   1.1977753      316.90986     -202.77042     -30710.992    
   9786000   1.1923548      320.24991     -654.78574     -30660.341    
   9787000   1.1934529      319.25464      281.70531     -30653.383    
   9788000   1.1992623      325.16952      471.9585      -30664.87     
   9789000   1.2016487      324.05726      286.3252      -30720.371    
   9790000   1.1888078      329.99267     -844.33952     -30534.035    
   9791000   1.19941        319.80663      569.95629     -30677.892    
   9792000   1.206448       315.57945      774.60584     -30639.396    
   9793000   1.1944163      323.70846     -53.296512     -30643.349    
   9794000   1.2048999      327.08083     -128.50208     -30666.003    
   9795000   1.2164914      323.27608      1111.5686     -30699.197    
   9796000   1.1949181      329.71299     -418.45036     -30654.053    
   9797000   1.2132079      311.88882      619.08778     -30792.887    
   9798000   1.1901319      322.49055     -482.08821     -30538.056    
   9799000   1.2079022      318.33263     -137.39369     -30738.645    
   9800000   1.1919272      319.26695     -1064.3523     -30611.013    
   9801000   1.1965551      337.67046     -177.9119      -30559.939    
   9802000   1.1965542      328.03034      1272.5322     -30624.994    
   9803000   1.2053404      321.31315      633.73901     -30728.201    
   9804000   1.1935489      327.4641       506.35854     -30601.767    
   9805000   1.2020759      319.2196       426.68315     -30762.279    
   9806000   1.1876808      336.1664      -373.51657     -30632.406    
   9807000   1.2001902      316.54507     -239.87876     -30738.832    
   9808000   1.1968872      331.33484     -242.7204      -30582.8      
   9809000   1.2143691      324.94548      15.673175     -30612.395    
   9810000   1.1950702      330.20464     -3.5207008     -30525.67     
   9811000   1.211189       319.8862       834.6481      -30666.004    
   9812000   1.1880721      315.67746     -750.11094     -30604.726    
   9813000   1.1937104      319.91663     -664.97852     -30665.877    
   9814000   1.2100046      325.26266     -74.45988      -30630.57     
   9815000   1.1989859      321.04768     -467.65986     -30638.291    
   9816000   1.2082974      329.9066       340.27111     -30579.661    
   9817000   1.1980912      326.18137     -105.84296     -30599.666    
   9818000   1.2085184      318.69651      127.19552     -30766.494    
   9819000   1.1832627      328.89938     -1047.7827     -30581.344    
   9820000   1.2046676      315.07567     -99.302638     -30770.763    
   9821000   1.2076223      326.02776      66.6835       -30705.038    
   9822000   1.2101553      327.10966     -175.84382     -30630.778    
   9823000   1.1976038      327.51187      202.94596     -30647.439    
   9824000   1.1964144      324.74319      232.61198     -30736.495    
   9825000   1.1978545      328.94425     -925.7632      -30604.16     
   9826000   1.1936057      318.45619     -151.03932     -30630.091    
   9827000   1.202221       326.64726     -626.9479      -30654.785    
   9828000   1.1970139      319.7368      -1149.3489     -30733.89     
   9829000   1.2009728      320.88336     -109.63621     -30735.918    
   9830000   1.196003       328.64966      350.50758     -30678.453    
   9831000   1.198931       322.69637      281.18376     -30668.704    
   9832000   1.2073557      330.79026      735.35286     -30522.514    
   9833000   1.2011286      335.08877      405.82863     -30534.576    
   9834000   1.1954778      325.00336     -292.66715     -30631.652    
   9835000   1.2091019      319.75879      301.4647      -30679.299    
   9836000   1.1996032      330.87747      428.98331     -30662.249    
   9837000   1.1945415      324.46676      56.379847     -30651.644    
   9838000   1.2059948      313.25412      862.57949     -30793.078    
   9839000   1.1927065      333.50635     -856.18286     -30599.099    
   9840000   1.1971938      322.79277      332.09486     -30674.906    
   9841000   1.1974963      314.29124     -148.7518      -30700.52     
   9842000   1.2013536      324.02124      230.42492     -30696.439    
   9843000   1.1997905      333.19763     -120.13623     -30625.896    
   9844000   1.2155469      315.42339      759.43614     -30756.526    
   9845000   1.202045       329.128       -232.40146     -30622.717    
   9846000   1.2071053      313.89089     -347.92223     -30724.564    
   9847000   1.2022834      326.45299      182.39386     -30768.792    
   9848000   1.2075627      325.80008      472.16561     -30720.444    
   9849000   1.1927966      324.62434     -70.961389     -30663.997    
   9850000   1.2123352      330.77682      436.22128     -30702.208    
   9851000   1.1835648      329.17092     -1303.0679     -30564.924    
   9852000   1.2069555      313.69675     -28.091013     -30887.119    
   9853000   1.197254       319.01159     -301.63326     -30666.414    
   9854000   1.2070561      326.42922      1111.3839     -30719.282    
   9855000   1.2097931      320.53963      311.43686     -30636.518    
   9856000   1.206286       328.96424     -320.91266     -30595.858    
   9857000   1.202793       321.18918     -366.38417     -30633.489    
   9858000   1.1958664      321.6383       308.49488     -30669.288    
   9859000   1.1903353      305.00186      787.96816     -30845.625    
   9860000   1.2014742      327.04651     -18.374795     -30698.584    
   9861000   1.1937865      315.98742      139.89695     -30596.679    
   9862000   1.1997829      316.50201      57.705553     -30611.592    
   9863000   1.2036724      317.25316      332.44305     -30736.792    
   9864000   1.2068722      322.50284      595.17153     -30715.807    
   9865000   1.2069606      326.56939      32.948694     -30710.529    
   9866000   1.2125168      314.48769     -27.631031     -30786.468    
   9867000   1.2064728      323.05886     -1188.7918     -30607.487    
   9868000   1.2031753      316.65465      382.5628      -30722.655    
   9869000   1.1922236      323.41086      167.20366     -30603.816    
   9870000   1.2073133      314.9619       979.65747     -30626.076    
   9871000   1.2075883      321.22114     -284.16268     -30655.614    
   9872000   1.201951       305.1212       622.60415     -30664.043    
   9873000   1.2018457      329.94029     -128.15019     -30708.881    
   9874000   1.2046678      316.11767     -238.05301     -30772.268    
   9875000   1.1948041      315.66201     -757.10358     -30623.776    
   9876000   1.2026347      331.96537      644.80149     -30549.165    
   9877000   1.2027019      325.21811      767.16525     -30618.329    
   9878000   1.1832244      333.31603     -653.43107     -30585.03     
   9879000   1.2052713      311.76951      285.3049      -30794.952    
   9880000   1.2012784      322.86261     -993.19146     -30616.824    
   9881000   1.2034228      321.09056      624.97358     -30705.124    
   9882000   1.205224       312.32721      42.901649     -30730.438    
   9883000   1.2008857      331.07862     -455.17185     -30566.782    
   9884000   1.1988502      324.13829     -1057.0433     -30682.907    
   9885000   1.1982645      326.42347      598.73349     -30646.176    
   9886000   1.20817        330.74995      498.51816     -30737.926    
   9887000   1.203847       332.34572     -70.71523      -30685.28     
   9888000   1.1990747      325.65722     -264.66381     -30683.927    
   9889000   1.2029386      313.69007      445.07231     -30672.636    
   9890000   1.2050167      317.59334      124.80599     -30803.351    
   9891000   1.1983992      325.9106      -272.92768     -30723.488    
   9892000   1.2003674      317.97373     -403.50199     -30754.527    
   9893000   1.1947719      335.27269     -519.18983     -30614.506    
   9894000   1.2145798      322.45915      219.86674     -30733.196    
   9895000   1.1958822      331.55159     -778.43186     -30625.514    
   9896000   1.2123219      330.1495       428.11277     -30731.097    
   9897000   1.1988589      310.97656     -227.16879     -30799.477    
   9898000   1.2002205      318.67129     -497.92111     -30684.576    
   9899000   1.2050783      323.34491     -20.358614     -30701.039    
   9900000   1.2046734      315.2021      -284.64469     -30741.959    
   9901000   1.2042129      322.35789     -186.32563     -30633.293    
   9902000   1.1989751      330.29296      753.64125     -30561.571    
   9903000   1.2077885      314.20332      310.13221     -30799.411    
   9904000   1.1936455      320.12335     -936.96762     -30658.833    
   9905000   1.1991928      326.28975     -413.83168     -30685.757    
   9906000   1.1954725      317.38699     -39.048753     -30666.653    
   9907000   1.2037073      330.84066      702.42013     -30564.863    
   9908000   1.1966067      309.70849     -832.86122     -30753.672    
   9909000   1.19686        319.48844      726.87415     -30675.787    
   9910000   1.1931434      322.25401     -121.09855     -30617.033    
   9911000   1.2050604      314.21823      818.56463     -30693.044    
   9912000   1.1921303      322.27507      320.47539     -30781.621    
   9913000   1.1917753      327.1052       380.59959     -30548.376    
   9914000   1.1893838      325.45461     -812.47214     -30588.533    
   9915000   1.2107841      330.25647      791.51093     -30627.484    
   9916000   1.1935126      313.45927     -480.51073     -30687.929    
   9917000   1.2068531      317.83396      275.82675     -30703.523    
   9918000   1.2022403      306.99902     -267.92313     -30768.062    
   9919000   1.2025515      326.13861     -28.199787     -30639.043    
   9920000   1.1999822      319.03342      305.09728     -30785.173    
   9921000   1.1962382      324.71856      220.19517     -30612.958    
   9922000   1.1947559      326.89398     -241.71016     -30619.653    
   9923000   1.2060137      329.41238     -94.717369     -30509.194    
   9924000   1.1952471      324.06945      422.99265     -30659.17     
   9925000   1.2007701      317.85656     -164.00857     -30721.097    
   9926000   1.1999227      328.53667     -451.90871     -30750.934    
   9927000   1.190431       317.66129     -919.79513     -30756.616    
   9928000   1.2001975      329.72313     -454.86075     -30568.755    
   9929000   1.1982917      332.01329      551.65789     -30645.057    
   9930000   1.1830627      320.01897     -1224.2998     -30668.302    
   9931000   1.2059981      324.55149     -145.67315     -30588.349    
   9932000   1.1792745      310.98422     -701.0783      -30670.674    
   9933000   1.2089394      326.88655      1459.6987     -30690.116    
   9934000   1.1913532      319.54911     -652.38562     -30651.946    
   9935000   1.1949235      326.53511     -245.40976     -30668.088    
   9936000   1.2082032      325.19952      1262.2655     -30691.258    
   9937000   1.2019664      316.53419     -243.58654     -30766.739    
   9938000   1.1982068      323.84924      477.48623     -30579.751    
   9939000   1.2013883      323.45323     -807.0166      -30724.885    
   9940000   1.200371       325.23999     -740.52723     -30709.416    
   9941000   1.199567       317.26809     -166.02671     -30765.966    
   9942000   1.1995307      321.44427     -661.76649     -30575.568    
   9943000   1.2118153      310.587       -161.21338     -30767.252    
   9944000   1.2023377      324.36055      706.31503     -30641.928    
   9945000   1.2074631      334.69279      678.85281     -30748.238    
   9946000   1.1983783      323.58355     -682.52511     -30572.02     
   9947000   1.2007058      322.01847     -366.639       -30758.55     
   9948000   1.1943424      327.40333     -375.70151     -30532.205    
   9949000   1.1970542      317.86102     -304.82737     -30613.579    
   9950000   1.2061933      332.77691      867.77047     -30643.004    
   9951000   1.2026969      328.23156      373.23983     -30620.11     
   9952000   1.2053029      318.51199      28.462508     -30717.46     
   9953000   1.1922898      308.45593      684.27919     -30728.437    
   9954000   1.2143191      330.33612      1447.9584     -30611.869    
   9955000   1.2034308      327.95861      1055.6731     -30543.233    
   9956000   1.1851098      322.99995     -403.03134     -30615.279    
   9957000   1.202141       318.95011      642.22716     -30677.905    
   9958000   1.1925593      331.5455      -84.049486     -30577.767    
   9959000   1.1992914      321.76971     -538.71138     -30667.585    
   9960000   1.1959808      320.42812     -397.46354     -30649.242    
   9961000   1.2022975      316.66347      414.83368     -30639.735    
   9962000   1.1995174      325.81498     -41.625043     -30674.965    
   9963000   1.194508       326.18174      151.94441     -30562.21     
   9964000   1.1918677      326.2132      -291.03483     -30591.289    
   9965000   1.1950523      322.86478      343.82341     -30677.88     
   9966000   1.2049597      329.52563      512.32288     -30616.237    
   9967000   1.2004762      315.055        196.92341     -30714.128    
   9968000   1.1976018      317.32747      485.28734     -30724.074    
   9969000   1.1958976      318.28223      128.16545     -30718.222    
   9970000   1.1878187      322.18647     -1003.4707     -30629.098    
   9971000   1.2021239      324.91872     -844.05185     -30670.511    
   9972000   1.1837334      326.80658     -879.24959     -30611.792    
   9973000   1.2060025      320.21135      858.92546     -30711.965    
   9974000   1.1960539      327.18972     -1086.9186     -30650.328    
   9975000   1.2010476      318.31743      225.3698      -30685.176    
   9976000   1.2047177      329.30085      1219.2739     -30653.372    
   9977000   1.1924524      329.12567     -297.76105     -30608.776    
   9978000   1.2126082      318.88533      435.64297     -30818.411    
   9979000   1.1971921      321.87259     -281.37716     -30709.568    
   9980000   1.2070026      329.67486     -115.27637     -30701.658    
   9981000   1.2024162      326.47977     -104.85335     -30664.768    
   9982000   1.191671       313.9449      -803.35878     -30776.651    
   9983000   1.2036358      322.82078      820.12029     -30650.951    
   9984000   1.1927821      323.54251      204.59962     -30600.539    
   9985000   1.2019167      317.11135     -5.8523931     -30787.305    
   9986000   1.184953       323.30129     -901.50515     -30553.256    
   9987000   1.1852578      321.83971     -365.68177     -30643.359    
   9988000   1.1898318      321.43745      309.87247     -30575.381    
   9989000   1.2032858      324.47407      1239.1245     -30577.16     
   9990000   1.1889244      327.53735     -520.55334     -30642.81     
   9991000   1.2019471      324.06366      479.7376      -30692.829    
   9992000   1.193516       324.68477      278.0713      -30649.364    
   9993000   1.2119011      330.97782      834.70881     -30611.592    
   9994000   1.1882474      317.51234     -504.38473     -30766.791    
   9995000   1.2025405      313.15042      1002.2318     -30773.661    
   9996000   1.2045415      342.154        464.96048     -30590.107    
   9997000   1.1972998      318.78406     -352.20003     -30673.662    
   9998000   1.1946294      318.908       -1177.7921     -30695.758    
   9999000   1.2064687      316.44428      1088.2462     -30735.938    
  10000000   1.1946765      317.90941     -131.97782     -30724.468    
Loop time of 35663.5 on 32 procs for 10000000 steps with 3486 atoms

Performance: 24.226 ns/day, 0.991 hours/ns, 280.399 timesteps/s
99.6% CPU use with 32 MPI tasks x no OpenMP threads

MPI task timing breakdown:
Section |  min time  |  avg time  |  max time  |%varavg| %total
---------------------------------------------------------------
Pair    | 12196      | 13390      | 14286      | 472.7 | 37.55
Bond    | 44.676     | 46.109     | 49.038     |  11.8 |  0.13
Kspace  | 6453.2     | 7346       | 8533.2     | 638.0 | 20.60
Neigh   | 1963.9     | 1990.1     | 2008.3     |  21.9 |  5.58
Comm    | 2773.5     | 2793.5     | 2825.2     |  22.9 |  7.83
Output  | 0.57222    | 4.3684     | 121.96     |1010.5 |  0.01
Modify  | 9237       | 9688.4     | 9929       | 169.8 | 27.17
Other   |            | 404.7      |            |       |  1.13

Nlocal:        108.938 ave         118 max          97 min
Histogram: 2 2 1 4 4 4 4 2 5 4
Nghost:        4459.22 ave        4477 max        4438 min
Histogram: 1 3 2 2 5 7 4 1 4 3
Neighs:        44495.8 ave       49801 max       38727 min
Histogram: 3 1 2 4 3 8 3 6 0 2

Total # of neighbors = 1423866
Ave neighs/atom = 408.45267
Ave special neighs/atom = 2.0929432
Neighbor list builds = 1436945
Dangerous builds = 0
ERROR: Cannot reset timestep with active dump - must undump first (../output.cpp:637)
Last command: reset_timestep 0
srun: error: cmp076: tasks 0-31: Exited with exit code 1
srun: launch/slurm: _step_signal: Terminating StepId=2016067.0
