LAMMPS (23 Jun 2022 - Update 1)
####################################################
# Preprocessing Li2SO4 in water
# 1m 298 K and 1 atm
#################### SETTING UP ####################
units real
dimension 3
newton on
boundary p p p
atom_style full

#################### VARIABLES ####################
variable Temp equal 298.15    # Temperature in K
variable Pres equal 1.0       # Pressure in atm.

variable RandomSeed equal 51 # The random seed for velocity
variable tstep equal 1.0      # 1fs
variable Ninptpre equal 10000 # Pre-initialize the NPT ensemble (very small timesteps)
variable Ninpt equal 10000000  # Initialize the NPT ensemble
variable Npnpt equal 10000000  # Production in the NPT ensemble (volume)
variable Ninvtpre equal 10000 # Pre-initialize the NVT ensemble (very small timesteps)
variable Ninvt equal 500000   # Initialize the NVT ensemble
variable Nrun equal 50000     # production in the NVT ensemble (Transport properties) 1ns
variable Nf equal 1000         # Nfreq (fix ave/time and thermo)
variable Ne equal  1         # Nevery (fix ave/time)
variable Nr equal ${Nf}/${Ne} # Nrepeat (fix ave/time)
variable Nr equal 1000/${Ne} 
variable Nr equal 1000/1 
variable NBR equal ${Npnpt}/100 # Block averaging for density (NPT)
variable NBR equal 10000000/100 
variable Nd equal ${Nrun}/10 # Frequency of outputting positions of atoms in the NVT ensemble
variable Nd equal 50000/10 

variable nb equal 10          # Number of blocks (fix ordern)
variable nbe equal 20         # Number of block elements (fix ordern)
variable Nvisc equal 5        # Nevery for viscosity (fix ordern: sample data at (Nvisc*2))
variable Ncond equal 5        # Nevery for Tconductivity (fix ordern: sample data at (Ncond*2))
variable Ndiff equal 1000     # Nevery for diffusivity (fix ordern: sample data at (Ndiff))
variable Nwrit equal 100000   # Nwrite for transport properties (fix ordern: write every (Nwrit))

variable Nrdfe equal 1000     # Nevery for RDF (fix ave/time)
variable Nrdfw equal 1000     # Nwrite for RDF (compute rdf/ext: write every (Nrdfw*Nrdfe))
variable binnum equal 2000    # Number of bins for RDF

#################### ATOM DEFINITION and FORCEFIELD ####################
read_data ./data.lmp                     # read the positions
Reading data file ...
  orthogonal box = (0 0 0) to (31.689281 31.689281 31.689281)
  3 by 2 by 4 MPI processor grid
  reading atoms ...
  3162 atoms
  scanning bonds ...
  4 = max bonds/atom
  scanning angles ...
  6 = max angles/atom
  reading bonds ...
  2108 bonds
  reading angles ...
  1108 angles
Finding 1-2 1-3 1-4 neighbors ...
  special bond factors lj:    0        0        0       
  special bond factors coul:  0        0        0       
     4 = max # of 1-2 neighbors
     3 = max # of 1-3 neighbors
     3 = max # of 1-4 neighbors
     4 = max # of special neighbors
  special bonds CPU = 0.001 seconds
  read_data CPU = 0.016 seconds
include ./forcefield.data                # read the force field
#--------INTERMOLECULAR POTENTIAL -------------------#
# ---------------Developed for Li2SO4 in water (tip4p/2005) system-----#

mass 1 15.9994 # Ow
mass 2 1.008 # Hw
mass 3 6.891  # Li  -0.01, which went to ghost
mass 4 0.05 # m ghost of lithium
mass 5 0.1 # S  Center site without weight
mass 6 23.99065 # Os (added sulfur weight)


pair_style lj/cut/tip4p/long 1 2 1 1 0.1546 10.0
kspace_style pppm/tip4p 1.0e-5
pair_modify mix arithmetic tail yes # ATC and Lorentz-Berthelot combining rules

#-----------------Combinations----------------------------
# atomtype atomtype epsilon sigma

pair_coeff 1 1 0.185200 3.1589     # Ow-Ow
pair_coeff 1 2 0.000000 0.0000     # Ow-Hw
pair_coeff 1 3 0.167459 2.12       # Ow-Li
pair_coeff 1 4 0.000000 0.0000     # Ow-m
pair_coeff 1 5 0.215246 3.35445    # Ow-S  COMPUTE BY HAND LB mix
pair_coeff 1 6 0.150335 3.40445    # Ow-Os

pair_coeff 2 2 0.000000 0.0000     # Hw-Hw
pair_coeff 2 3 0.000000 0.0000     # Hw-Li
pair_coeff 2 4 0.000000 0.0000     # Hw-m
pair_coeff 2 5 0.000000 0.0000     # Hw-S
pair_coeff 2 6 0.000000 0.0000     # Hw-Os

pair_coeff 3 3 0.103989 1.4397     # Li-Li
pair_coeff 3 4 0.000000 0.0000     # Li-m
pair_coeff 3 5 0.161291 2.49485    # Li-S   COMPUTE BY HAND LB mix
pair_coeff 3 6 0.192067 2.844850   # Li-Os

pair_coeff 4 4 0.000000 0.0000     # m-m
pair_coeff 4 5 0.000000 0.0000     # m-S
pair_coeff 4 6 0.000000 0.0000     # m-Os

pair_coeff 5 5 0.250167 3.5500     # S-S
pair_coeff 5 6 0.223762 3.6000     # S-Os  CHECK BY HAND LB mix

pair_coeff 6 6 0.200143 3.6500     # Os-Os

bond_style  harmonic
bond_coeff 1 2000 0.9572           # Ow-Hw
bond_coeff 2 1000 0.5		   # Li-m
bond_coeff 3 1000 1.490		   # S-Os

angle_style harmonic
angle_coeff 1 200 104.52           # H-Ow-H
angle_coeff 2 200 109.5           # Os-S-Os

#dihedral_style none
#improper_style none

set type 1 charge -1.1128          # O
Setting atom values ...
  1000 settings made for charge
set type 2 charge +0.5564          # OH
Setting atom values ...
  2000 settings made for charge
set type 3 charge +0.8500          # Li
Setting atom values ...
  36 settings made for charge
set type 4 charge 0		   # m
Setting atom values ...
  36 settings made for charge
set type 5 charge +0.9000          # S
Setting atom values ...
  18 settings made for charge
set type 6 charge -0.6500          # Os
Setting atom values ...
  72 settings made for charge


#################### INITIALIZATION ####################
# groups for the central atoms of water (O)

group wat type 1		# O water
1000 atoms in group wat
group Li type 3			# Lithium atom
36 atoms in group Li
group S type 5			# S sulfite group centre
18 atoms in group S

# neigbor lists
neighbor 2.0 bin
neigh_modify every 1 delay 0 check yes

# velocity-Verlet integrator
run_style verlet

# initializing velocities
velocity all create ${Temp} ${RandomSeed}
velocity all create 298.15 ${RandomSeed}
velocity all create 298.15 51

# rate of writing thermal properties to the log file
thermo_style custom step density temp press etotal
thermo_modify flush yes
thermo ${Nf}
thermo 1000

#################### 2) Initialize the NPT ensemble ####################
######### Go to the correct temperature now ant initiate that ##########
fix integrate all rigid/npt/small molecule temp ${Temp} ${Temp} 10.0 iso ${Pres} ${Pres} 100.0
fix integrate all rigid/npt/small molecule temp 298.15 ${Temp} 10.0 iso ${Pres} ${Pres} 100.0
fix integrate all rigid/npt/small molecule temp 298.15 298.15 10.0 iso ${Pres} ${Pres} 100.0
fix integrate all rigid/npt/small molecule temp 298.15 298.15 10.0 iso 1 ${Pres} 100.0
fix integrate all rigid/npt/small molecule temp 298.15 298.15 10.0 iso 1 1 100.0
  create bodies CPU = 0.000 seconds
  1054 rigid bodies with 3162 atoms
  1.4900082 = max distance from body owner to body atom

# add dump trajectory

# Initializing the whole system with very small timesteps in the NPT ensemble
timestep 0.001
run ${Ninptpre}
run 10000
PPPM initialization ...
  extracting TIP4P info from pair style
  using 12-bit tables for long-range coulomb (../kspace.cpp:342)
  G vector (1/distance) = 0.31119582
  grid = 30 30 30
  stencil order = 5
  estimated absolute RMS force accuracy = 0.0035544154
  estimated relative force accuracy = 1.0704016e-05
  using double precision KISS FFT
  3d grid and FFT values/proc = 5610 1800
Generated 0 of 15 mixed pair_coeff terms from arithmetic mixing rule
Neighbor list info ...
  update every 1 steps, delay 0 steps, check yes
  max neighbors/atom: 2000, page size: 100000
  master list distance cutoff = 12.3092
  ghost atom cutoff = 12.3092
  binsize = 6.1546, bins = 6 6 6
  1 neighbor lists, perpetual/occasional/extra = 1 0 0
  (1) pair lj/cut/tip4p/long, perpetual
      attributes: half, newton on
      pair build: half/bin/newton
      stencil: half/bin/3d
      bin: standard
Per MPI rank memory allocation (min/avg/max) = 15.57 | 15.61 | 15.64 Mbytes
   Step        Density          Temp          Press          TotEng    
         0   1.0433267      296.42968      5630412.9      5936.4457    
      1000   1.0424987      315.25428      73102.751      5909.2226    
      2000   1.0402516      370.18618      70518.19       5833.8631    
      3000   1.0366427      456.75345      66062.987      5704.3227    
      4000   1.0317705      566.68687      59616.868      5505.0251    
      5000   1.0257769      691.77739      51752.887      5232.4396    
      6000   1.0188338      826.44325      44430.191      4903.8247    
      7000   1.0111118      961.59463      37489.163      4516.0636    
      8000   1.0027808      1089.9277      29789.463      4076.3285    
      9000   0.99402254     1203.5576      23017.701      3584.0062    
     10000   0.98500549     1298.2272      17037.701      3053.9506    
Loop time of 32.9295 on 24 procs for 10000 steps with 3162 atoms

Performance: 0.026 ns/day, 914.710 hours/ns, 303.679 timesteps/s
99.5% CPU use with 24 MPI tasks x no OpenMP threads

MPI task timing breakdown:
Section |  min time  |  avg time  |  max time  |%varavg| %total
---------------------------------------------------------------
Pair    | 13.119     | 15.451     | 17.898     |  32.9 | 46.92
Bond    | 0.048614   | 0.057577   | 0.064904   |   1.8 |  0.17
Kspace  | 6.071      | 8.5173     | 10.876     |  44.4 | 25.87
Neigh   | 0.0014449  | 0.0014633  | 0.0014838  |   0.0 |  0.00
Comm    | 1.2151     | 1.245      | 1.2789     |   1.6 |  3.78
Output  | 0.00044768 | 0.00046254 | 0.00071262 |   0.0 |  0.00
Modify  | 5.9699     | 6.4489     | 7.3959     |  20.5 | 19.58
Other   |            | 1.208      |            |       |  3.67

Nlocal:         131.75 ave         143 max         118 min
Histogram: 2 0 2 2 3 3 5 2 3 2
Nghost:         4461.5 ave        4517 max        4388 min
Histogram: 4 0 3 1 0 2 3 5 3 3
Neighs:        50090.8 ave       57313 max       42747 min
Histogram: 1 2 2 1 6 5 1 3 2 1

Total # of neighbors = 1202180
Ave neighs/atom = 380.19608
Ave special neighs/atom = 2.0341556
Neighbor list builds = 1
Dangerous builds = 0
timestep 0.01
run ${Ninptpre}
run 10000
PPPM initialization ...
  extracting TIP4P info from pair style
  using 12-bit tables for long-range coulomb (../kspace.cpp:342)
  G vector (1/distance) = 0.30981411
  grid = 30 30 30
  stencil order = 5
  estimated absolute RMS force accuracy = 0.0037633449
  estimated relative force accuracy = 1.1333201e-05
  using double precision KISS FFT
  3d grid and FFT values/proc = 5610 1800
Generated 0 of 15 mixed pair_coeff terms from arithmetic mixing rule
Per MPI rank memory allocation (min/avg/max) = 15.57 | 15.61 | 15.64 Mbytes
   Step        Density          Temp          Press          TotEng    
     10000   0.98500549     1298.2272      7068.2444      3053.9495    
     11000   0.90432755     1212.7036     -8481.4284     -2103.5716    
     12000   0.85840485     868.10211     -10475.414     -4808.3865    
     13000   0.83968845     730.01331     -9836.4345     -6532.6883    
     14000   0.84132083     626.91854     -8529.3881     -7842.0602    
     15000   0.85898204     556.08374     -6881.063      -8874.1244    
     16000   0.88913629     519.00943     -4779.1036     -9765.0183    
     17000   0.92695117     489.45778     -3041.2725     -10496.188    
     18000   0.96737662     465.83145     -1124.2167     -11097.624    
     19000   1.0063844      466.63152      243.56339     -11624.491    
     20000   1.041441       450.11621      1640.3517     -12107.548    
Loop time of 30.4128 on 24 procs for 10000 steps with 3162 atoms

Performance: 0.284 ns/day, 84.480 hours/ns, 328.809 timesteps/s
99.5% CPU use with 24 MPI tasks x no OpenMP threads

MPI task timing breakdown:
Section |  min time  |  avg time  |  max time  |%varavg| %total
---------------------------------------------------------------
Pair    | 11.766     | 13.772     | 16.286     |  32.5 | 45.28
Bond    | 0.051675   | 0.057508   | 0.064563   |   1.5 |  0.19
Kspace  | 5.8372     | 8.3153     | 10.328     |  41.6 | 27.34
Neigh   | 0.020769   | 0.020989   | 0.021301   |   0.1 |  0.07
Comm    | 1.0634     | 1.099      | 1.1357     |   2.0 |  3.61
Output  | 0.00042454 | 0.00044123 | 0.00068057 |   0.0 |  0.00
Modify  | 5.5466     | 6.0227     | 6.9482     |  20.9 | 19.80
Other   |            | 1.125      |            |       |  3.70

Nlocal:         131.75 ave         146 max         119 min
Histogram: 1 3 4 5 0 3 3 0 3 2
Nghost:        4471.67 ave        4547 max        4379 min
Histogram: 4 1 3 0 0 0 6 2 6 2
Neighs:        50747.2 ave       58811 max       44119 min
Histogram: 3 2 3 4 2 1 4 3 0 2

Total # of neighbors = 1217933
Ave neighs/atom = 385.17805
Ave special neighs/atom = 2.0341556
Neighbor list builds = 15
Dangerous builds = 0
timestep 0.1
run ${Ninptpre}
run 10000
PPPM initialization ...
  extracting TIP4P info from pair style
  using 12-bit tables for long-range coulomb (../kspace.cpp:342)
  G vector (1/distance) = 0.31115249
  grid = 30 30 30
  stencil order = 5
  estimated absolute RMS force accuracy = 0.0035608012
  estimated relative force accuracy = 1.0723247e-05
  using double precision KISS FFT
  3d grid and FFT values/proc = 5610 1800
Generated 0 of 15 mixed pair_coeff terms from arithmetic mixing rule
Per MPI rank memory allocation (min/avg/max) = 15.57 | 15.61 | 15.64 Mbytes
   Step        Density          Temp          Press          TotEng    
     20000   1.041441       450.11621      2424.2485     -12107.543    
     21000   1.1342177      323.99052     -473.16487     -15130.396    
     22000   1.1400411      304.21456      27.036441     -16006.78     
     23000   1.1194679      298.64241     -1493.8756     -16241.014    
     24000   1.1149861      294.85623     -594.50525     -16397.62     
     25000   1.1075554      297.69577     -364.83608     -16422.497    
     26000   1.1106383      288.32637      410.68581     -16526.434    
     27000   1.1057558      296.7896      -84.608789     -16599.486    
     28000   1.0985787      296.53012      92.229828     -16549.948    
     29000   1.0951479      300.5524       377.45293     -16558.979    
     30000   1.0915382      296.7889       392.12832     -16602.91     
Loop time of 35.6906 on 24 procs for 10000 steps with 3162 atoms

Performance: 2.421 ns/day, 9.914 hours/ns, 280.186 timesteps/s
99.5% CPU use with 24 MPI tasks x no OpenMP threads

MPI task timing breakdown:
Section |  min time  |  avg time  |  max time  |%varavg| %total
---------------------------------------------------------------
Pair    | 15.177     | 17.305     | 19.072     |  23.7 | 48.49
Bond    | 0.053619   | 0.058507   | 0.063089   |   1.0 |  0.16
Kspace  | 6.8304     | 8.6336     | 10.759     |  33.7 | 24.19
Neigh   | 0.14363    | 0.1446     | 0.1457     |   0.1 |  0.41
Comm    | 1.341      | 1.3566     | 1.3804     |   1.0 |  3.80
Output  | 0.00039215 | 0.00040688 | 0.00064391 |   0.0 |  0.00
Modify  | 6.4866     | 6.9558     | 7.8818     |  19.6 | 19.49
Other   |            | 1.236      |            |       |  3.46

Nlocal:         131.75 ave         142 max         123 min
Histogram: 2 3 3 3 3 2 1 5 0 2
Nghost:        4610.08 ave        4628 max        4585 min
Histogram: 1 0 1 3 4 4 3 4 1 3
Neighs:        53348.5 ave       58481 max       47089 min
Histogram: 2 1 1 2 4 3 4 2 2 3

Total # of neighbors = 1280365
Ave neighs/atom = 404.92252
Ave special neighs/atom = 2.0341556
Neighbor list builds = 91
Dangerous builds = 0
timestep 0.2
run ${Ninptpre}
run 10000
PPPM initialization ...
  extracting TIP4P info from pair style
  using 12-bit tables for long-range coulomb (../kspace.cpp:342)
  G vector (1/distance) = 0.3122748
  grid = 30 30 30
  stencil order = 5
  estimated absolute RMS force accuracy = 0.0033987273
  estimated relative force accuracy = 1.0235166e-05
  using double precision KISS FFT
  3d grid and FFT values/proc = 5610 1800
Generated 0 of 15 mixed pair_coeff terms from arithmetic mixing rule
Per MPI rank memory allocation (min/avg/max) = 15.57 | 15.61 | 15.65 Mbytes
   Step        Density          Temp          Press          TotEng    
     30000   1.0915382      296.7889       5804.3274     -16602.905    
     31000   1.0902778      285.5563       501.19748     -16617.867    
     32000   1.0821435      293.21139      286.7583      -16620.031    
     33000   1.0850092      292.95301     -218.19452     -16719.015    
     34000   1.0906746      302.21514     -278.50185     -16658.833    
     35000   1.0921153      298.84878      274.29469     -16719.91     
     36000   1.0904312      287.9725       294.82871     -16796.708    
     37000   1.0863394      303.88585     -350.48347     -16721.373    
     38000   1.0920056      293.45636     -101.28018     -16788.347    
     39000   1.0810205      307.15087     -700.81823     -16690.376    
     40000   1.0813807      295.51792     -607.97622     -16771.427    
Loop time of 34.9056 on 24 procs for 10000 steps with 3162 atoms

Performance: 4.950 ns/day, 4.848 hours/ns, 286.487 timesteps/s
99.5% CPU use with 24 MPI tasks x no OpenMP threads

MPI task timing breakdown:
Section |  min time  |  avg time  |  max time  |%varavg| %total
---------------------------------------------------------------
Pair    | 15.227     | 17.163     | 18.125     |  18.0 | 49.17
Bond    | 0.05456    | 0.058396   | 0.062365   |   0.9 |  0.17
Kspace  | 6.9381     | 7.8831     | 9.8131     |  26.5 | 22.58
Neigh   | 0.30353    | 0.30556    | 0.30799    |   0.2 |  0.88
Comm    | 1.3056     | 1.3238     | 1.3455     |   0.9 |  3.79
Output  | 0.00036651 | 0.0003831  | 0.00062701 |   0.0 |  0.00
Modify  | 6.4875     | 6.9513     | 7.8555     |  19.3 | 19.91
Other   |            | 1.22       |            |       |  3.50

Nlocal:         131.75 ave         141 max         121 min
Histogram: 1 1 2 1 3 8 1 2 3 2
Nghost:        4596.25 ave        4627 max        4556 min
Histogram: 1 2 1 2 2 4 5 3 1 3
Neighs:        52924.6 ave       56596 max       48857 min
Histogram: 2 2 1 4 2 4 2 2 2 3

Total # of neighbors = 1270190
Ave neighs/atom = 401.70462
Ave special neighs/atom = 2.0341556
Neighbor list builds = 196
Dangerous builds = 0
timestep 0.5
run ${Ninptpre}
run 10000
PPPM initialization ...
  extracting TIP4P info from pair style
  using 12-bit tables for long-range coulomb (../kspace.cpp:342)
  G vector (1/distance) = 0.31205195
  grid = 30 30 30
  stencil order = 5
  estimated absolute RMS force accuracy = 0.0034303613
  estimated relative force accuracy = 1.0330431e-05
  using double precision KISS FFT
  3d grid and FFT values/proc = 5610 1800
Generated 0 of 15 mixed pair_coeff terms from arithmetic mixing rule
Per MPI rank memory allocation (min/avg/max) = 15.57 | 15.61 | 15.65 Mbytes
   Step        Density          Temp          Press          TotEng    
     40000   1.0813807      295.51792     -840.33478     -16771.427    
     41000   1.0797536      299.65931     -261.52576     -16707.21     
     42000   1.0835553      292.26859     -450.89651     -16801.33     
     43000   1.1004291      294.97909      1131.1653     -16908.259    
     44000   1.0910079      300.96409      380.45273     -16782.121    
     45000   1.0803249      296.62378     -324.16547     -16735.046    
     46000   1.0867075      303.10745      291.34347     -16757.682    
     47000   1.0826224      295.15144      544.09799     -16786.418    
     48000   1.0869157      297.5715      -40.199408     -16815.915    
     49000   1.0749429      307.38744     -215.28855     -16743.383    
     50000   1.0788136      296.59264     -248.80213     -16835.598    
Loop time of 36.1072 on 24 procs for 10000 steps with 3162 atoms

Performance: 11.964 ns/day, 2.006 hours/ns, 276.953 timesteps/s
99.5% CPU use with 24 MPI tasks x no OpenMP threads

MPI task timing breakdown:
Section |  min time  |  avg time  |  max time  |%varavg| %total
---------------------------------------------------------------
Pair    | 15.501     | 17.197     | 18.486     |  18.0 | 47.63
Bond    | 0.052644   | 0.058294   | 0.063419   |   1.1 |  0.16
Kspace  | 7.0112     | 8.3097     | 10.015     |  26.0 | 23.01
Neigh   | 0.86254    | 0.86777    | 0.87441    |   0.3 |  2.40
Comm    | 1.3821     | 1.4014     | 1.4144     |   0.8 |  3.88
Output  | 0.00035662 | 0.00037682 | 0.00062371 |   0.0 |  0.00
Modify  | 6.5941     | 7.0476     | 7.9544     |  19.1 | 19.52
Other   |            | 1.225      |            |       |  3.39

Nlocal:         131.75 ave         144 max         114 min
Histogram: 1 1 0 1 1 6 8 3 1 2
Nghost:        4594.88 ave        4638 max        4550 min
Histogram: 2 1 2 2 3 5 2 6 0 1
Neighs:        52798.2 ave       58379 max       44618 min
Histogram: 2 0 0 3 4 1 5 4 4 1

Total # of neighbors = 1267158
Ave neighs/atom = 400.74573
Ave special neighs/atom = 2.0341556
Neighbor list builds = 550
Dangerous builds = 0
reset_timestep 0

# continuing the initialization with the final value of timestep
unfix integrate
fix integrate all rigid/npt/small molecule temp ${Temp} ${Temp} 100.0 iso ${Pres} ${Pres} 1000.0
fix integrate all rigid/npt/small molecule temp 298.15 ${Temp} 100.0 iso ${Pres} ${Pres} 1000.0
fix integrate all rigid/npt/small molecule temp 298.15 298.15 100.0 iso ${Pres} ${Pres} 1000.0
fix integrate all rigid/npt/small molecule temp 298.15 298.15 100.0 iso 1 ${Pres} 1000.0
fix integrate all rigid/npt/small molecule temp 298.15 298.15 100.0 iso 1 1 1000.0
  create bodies CPU = 0.000 seconds
  1054 rigid bodies with 3162 atoms
  1.4901311 = max distance from body owner to body atom

timestep ${tstep}
timestep 1
run ${Ninpt}
run 10000000
PPPM initialization ...
  extracting TIP4P info from pair style
  using 12-bit tables for long-range coulomb (../kspace.cpp:342)
  G vector (1/distance) = 0.31199525
  grid = 30 30 30
  stencil order = 5
  estimated absolute RMS force accuracy = 0.0034384516
  estimated relative force accuracy = 1.0354795e-05
  using double precision KISS FFT
  3d grid and FFT values/proc = 5610 1800
Generated 0 of 15 mixed pair_coeff terms from arithmetic mixing rule
Per MPI rank memory allocation (min/avg/max) = 15.57 | 15.61 | 15.65 Mbytes
   Step        Density          Temp          Press          TotEng    
         0   1.0788136      296.59264      2467.5425     -16835.598    
      1000   1.0837878      299.19444     -445.28152     -16759.813    
      2000   1.0843124      290.40255     -280.89751     -16865.631    
      3000   1.0660959      293.43109     -682.61126     -16860.384    
      4000   1.0772956      298.48658     -223.57042     -16887.198    
      5000   1.0699235      298.7026      -882.37982     -16847.551    
      6000   1.0837552      293.90112      986.33734     -16897.956    
      7000   1.070423       294.27015      125.86923     -16821.943    
      8000   1.0781817      292.7095      -226.66101     -16915.016    
      9000   1.0751694      300.81538      434.65747     -16821.957    
     10000   1.0709934      301.6818      -202.29697     -16779.212    
     11000   1.0775457      291.70519     -37.050179     -16890.283    
     12000   1.0744723      299.13274      138.33702     -16794.621    
     13000   1.0722272      300.99302     -453.71697     -16770.496    
     14000   1.0931629      297.3098       308.27623     -16767.067    
     15000   1.0852785      306.56723      606.93821     -16693.105    
     16000   1.08716        304.2173       63.186431     -16819.34     
     17000   1.0761135      291.65275     -95.93932      -16844.28     
     18000   1.0846786      296.33126      1185.7325     -16893.833    
     19000   1.0792135      304.98299      249.21609     -16686.306    
     20000   1.1024659      295.41451      1149.0536     -16772.165    
     21000   1.0759605      292.30729     -688.97968     -16793.045    
     22000   1.0915557      297.5448       735.2202      -16817.714    
     23000   1.0790821      299.33348     -669.09969     -16815.257    
     24000   1.0845039      309.10547     -389.87714     -16647.165    
     25000   1.0897942      292.41098     -182.23267     -16877.099    
     26000   1.099348       298.20545      141.78709     -16842.44     
     27000   1.0810905      300.26771     -232.74249     -16792.688    
     28000   1.0844957      297.35642      297.6064      -16828.663    
     29000   1.0811798      298.76337     -107.4662      -16849.464    
     30000   1.0937981      293.97543      262.653       -16862.526    
     31000   1.0838941      295.68068     -207.75541     -16802.646    
     32000   1.0885659      304.95221     -92.520303     -16736.907    
     33000   1.072562       295.1485      -802.70512     -16809.911    
     34000   1.0792451      291.56026     -349.29802     -16821.185    
     35000   1.0896008      289.74027      492.71938     -16926.482    
     36000   1.0771005      302.74112     -125.2391      -16861.493    
     37000   1.0731271      294.5575      -220.83217     -16699.568    
     38000   1.0779887      292.50098      558.88757     -16773.982    
     39000   1.0796297      299.03378      811.4177      -16808.289    
     40000   1.0870055      294.68731      71.877344     -16873.044    
     41000   1.0749647      299.95715     -554.22183     -16789.926    
     42000   1.082167       304.87931      129.69004     -16767.685    
     43000   1.0837121      299.86934     -294.63476     -16762.577    
     44000   1.0794662      310.67696     -8.4916422     -16690.778    
     45000   1.0774929      289.7139      -533.69808     -16856.614    
     46000   1.0780433      297.83686     -208.05624     -16825.018    
     47000   1.0808643      295.5433       864.06837     -16763.106    
     48000   1.0864725      302.48451      1133.2099     -16770.559    
     49000   1.0853503      301.24725     -355.92845     -16749.849    
     50000   1.0776575      301.32752     -297.6622      -16715.596    
     51000   1.0845032      293.01927     -939.4387      -16754.536    
     52000   1.0911836      304.8471       139.94381     -16714.513    
     53000   1.0876422      308.46403      264.3975      -16752.191    
     54000   1.0825557      299.96448     -35.069289     -16820.592    
     55000   1.0738282      292.02292     -140.02903     -16831.227    
     56000   1.0860275      297.62951      27.540275     -16875.164    
     57000   1.0943653      295.23697     -640.8158      -16823.278    
     58000   1.0939835      304.29154     -59.037785     -16847.664    
     59000   1.0811584      304.35498      398.48393     -16729.704    
     60000   1.093677       309.13511     -408.05497     -16783.196    
     61000   1.0820537      297.43929     -593.89338     -16763.147    
     62000   1.0792436      295.18543     -65.404162     -16873.372    
     63000   1.0809672      295.5572       202.57813     -16852.85     
     64000   1.068895       298.5296      -798.81513     -16859.979    
     65000   1.0908032      286.72088      975.38057     -16893.637    
     66000   1.0777186      304.38773     -433.24423     -16695.353    
     67000   1.0925152      290.5641      -606.69079     -16937.002    
     68000   1.0879719      290.58676     -155.81491     -16918.112    
     69000   1.1008286      295.20856      433.83179     -16868.88     
     70000   1.0658658      296.92555     -798.50234     -16784.564    
     71000   1.077627       293.75931      279.32734     -16757.257    
     72000   1.083114       297.47016     -674.8849      -16830.26     
     73000   1.0761386      302.20875     -38.013724     -16801.735    
     74000   1.0887637      304.09489      566.32731     -16798.336    
     75000   1.0825365      294.6826       62.293721     -16789.788    
     76000   1.0902361      299.99901      762.80698     -16822.588    
     77000   1.0710678      294.14832     -264.22871     -16861.996    
     78000   1.0788771      298.59871      257.14049     -16817.025    
     79000   1.0833908      284.27252     -260.08724     -16925.399    
     80000   1.0950148      306.24616     -21.267617     -16763.715    
     81000   1.0926641      287.06854     -373.22653     -16905.306    
     82000   1.0802571      295.95976     -648.22569     -16808.585    
     83000   1.0847833      297.59502      105.01407     -16858.841    
     84000   1.0776674      296.76183     -273.98743     -16764.641    
     85000   1.0846281      300.75711     -260.44811     -16779.092    
     86000   1.0802983      302.49856      892.46371     -16735.67     
     87000   1.0775172      300.07477      832.61422     -16801.752    
     88000   1.0748629      302.4691      -25.669838     -16788.208    
     89000   1.0696661      290.28156      179.3847      -16890.939    
     90000   1.0763599      293.91549      193.77623     -16891.874    
     91000   1.0875018      287.69393      342.77254     -16981.49     
     92000   1.0793796      295.27264      3.3921746     -16827.502    
     93000   1.0760988      306.21392     -140.02841     -16735.514    
     94000   1.0719632      300.2448      -304.60681     -16782.016    
     95000   1.0725622      301.9121      -350.70494     -16794.832    
     96000   1.0884323      290.42204      305.0114      -16874.196    
     97000   1.069004       303.41537     -655.21133     -16768.645    
     98000   1.0779415      301.52723      138.81882     -16788.895    
     99000   1.0827482      307.07214     -211.10371     -16759.831    
    100000   1.0882867      293.36777      485.97227     -16826.309    
    101000   1.0803846      291.23242     -514.62805     -16809.039    
    102000   1.0808057      289.8902      -211.91315     -16752.439    
    103000   1.0715801      304.55408     -362.34635     -16742.182    
    104000   1.0823322      305.02266      749.64776     -16795.377    
    105000   1.0749213      296.27238      306.97612     -16749.494    
    106000   1.0847513      292.58627      47.304087     -16849.522    
    107000   1.0871298      299.40526      7.546021      -16720.628    
    108000   1.0990697      305.30963      597.78309     -16813.35     
    109000   1.087761       303.11439      266.45406     -16730.073    
    110000   1.0831358      294.45559     -331.66793     -16810.584    
    111000   1.0888552      294.28121      204.15185     -16829.595    
    112000   1.0851317      293.85625      633.0848      -16784.325    
    113000   1.0871385      298.48597      229.68744     -16746.911    
    114000   1.0686624      294.4526      -356.99361     -16747.721    
    115000   1.0721753      298.16732     -565.942       -16753.967    
    116000   1.0878347      298.04034      127.39041     -16817.854    
    117000   1.0800104      292.59887     -451.34486     -16834.807    
    118000   1.0784003      302.21848     -444.33966     -16794.079    
    119000   1.0835751      296.01481     -8.4388535     -16844.382    
    120000   1.0863783      289.35131     -167.02657     -16906.537    
    121000   1.0823635      302.32178      1213.5951     -16758.135    
    122000   1.084173       303.28535      1033.256      -16719.635    
    123000   1.0785161      299.7376      -84.577133     -16836.427    
    124000   1.0738165      305.37605     -848.53642     -16800.907    
    125000   1.0879443      291.89971     -225.44684     -16807.263    
    126000   1.0957454      302.54344     -143.87018     -16902.469    
    127000   1.0756523      292.39399     -1068.5488     -16913.467    
    128000   1.0818914      298.44959      340.5814      -16815.887    
    129000   1.0873854      300.40236     -123.54898     -16826.052    
    130000   1.0934438      301.2165       463.57404     -16835.708    
    131000   1.078374       291.11177     -511.08063     -16809.249    
    132000   1.0990163      300.56209      893.11022     -16829.725    
    133000   1.0797679      280.28446     -1331.1695     -16961.367    
    134000   1.0900123      305.37867      883.56113     -16830.192    
    135000   1.0789759      295.16516      409.6189      -16817.097    
    136000   1.0707638      297.18031     -516.14715     -16835.785    
    137000   1.0757034      300.41353     -53.62296      -16743.742    
    138000   1.0896731      293.84595      165.48445     -16869.664    
    139000   1.0829355      300.34081      79.200965     -16827.187    
    140000   1.0858318      295.41952      453.176       -16855.953    
    141000   1.0794454      307.59101      536.01624     -16767.171    
    142000   1.0857031      291.89115      623.81101     -16841.488    
    143000   1.0913846      306.88528      444.34463     -16646.037    
    144000   1.085413       297.95227     -791.04452     -16801.24     
    145000   1.0939137      290.08142     -49.862375     -16816.648    
    146000   1.0718396      300.87652     -1235.9077     -16703.377    
    147000   1.0829645      299.17206     -616.02091     -16890.081    
    148000   1.0686041      298.78778      268.55515     -16731.269    
    149000   1.0707382      283.35946     -376.22816     -16870.242    
    150000   1.0751092      289.89945      279.13339     -16864.901    
    151000   1.082839       297.95288      378.81198     -16796.128    
    152000   1.0905776      301.26933     -246.37882     -16844.785    
    153000   1.0757916      291.73253     -163.84412     -16832.142    
    154000   1.0820293      300.71784      290.11955     -16789.153    
    155000   1.082295       296.27748      256.81156     -16875.322    
    156000   1.0682605      292.07168     -516.91413     -16896.695    
    157000   1.0855882      281.59027      738.49531     -16914.699    
    158000   1.0732796      294.62171      286.05758     -16911.988    
    159000   1.0752697      292.98894     -159.97445     -16840.511    
    160000   1.0828851      289.1904       2.8576463     -16949.035    
    161000   1.0763813      294.70869      151.5761      -16902.975    
    162000   1.080067       303.50904      709.70684     -16785.327    
    163000   1.0770363      289.16066     -158.44945     -16905.803    
    164000   1.0757925      295.42143      280.27736     -16915.677    
    165000   1.0701398      302.51106      131.75284     -16774.954    
    166000   1.0674294      297.14141     -1262.8516     -16822.117    
    167000   1.0785871      303.10401     -184.14192     -16809.891    
    168000   1.0715916      298.49236     -1103.298      -16752.659    
    169000   1.078913       298.6376       522.03154     -16786.634    
    170000   1.0834143      295.42265      410.90615     -16886.23     
    171000   1.0798079      295.76737     -285.86958     -16822.189    
    172000   1.079567       290.05174      957.9655      -16889.921    
    173000   1.0570849      300.84797     -526.90898     -16812.535    
    174000   1.0755238      292.53904     -64.271832     -16897.819    
    175000   1.0725115      291.62254      790.9744      -16868.959    
    176000   1.0781442      299.86154      659.81514     -16826.423    
    177000   1.0880774      297.7271      -44.544966     -16935.06     
    178000   1.072348       295.97829      480.17844     -16743.756    
    179000   1.0928073      305.12128      636.58723     -16828.294    
    180000   1.0821283      296.90763      52.628228     -16909.252    
    181000   1.0854361      299.62006     -447.43976     -16844.214    
    182000   1.0823369      302.07932      113.58104     -16703.554    
    183000   1.0763311      294.4004      -919.92495     -16708.348    
    184000   1.0815289      286.97354      86.649738     -16844.118    
    185000   1.0783458      306.2619       161.40453     -16743.767    
    186000   1.0691855      291.38995      319.05329     -16879.715    
    187000   1.081173       296.93199      485.37753     -16772.64     
    188000   1.077056       303.07236      341.6868      -16795.444    
    189000   1.0851021      295.62517     -7.745613      -16862.347    
    190000   1.1024474      297.93395      60.430333     -16865.632    
    191000   1.0917383      299.35712     -266.49341     -16809.225    
    192000   1.0998024      298.34561     -471.27848     -16752.541    
    193000   1.0892689      302.23937     -683.33522     -16824.787    
    194000   1.0776595      298.9389      -96.944391     -16848.922    
    195000   1.0761957      300.14246     -288.78843     -16781.98     
    196000   1.0873415      294.66686     -71.094334     -16781.321    
    197000   1.0845791      304.07054     -297.37335     -16769.574    
    198000   1.0853049      298.47302     -69.450975     -16798.133    
    199000   1.0891282      288.35727      495.8283      -16809.104    
    200000   1.0771931      290.50537      797.81122     -16818.885    
    201000   1.0750234      302.9801       500.46011     -16770.805    
    202000   1.0768229      303.26907      12.595222     -16794.265    
    203000   1.0732737      299.57001      436.69058     -16692.868    
    204000   1.0729206      293.1082      -721.40679     -16726.231    
    205000   1.0725085      291.10336     -436.03959     -16956.683    
    206000   1.0909157      308.82293     -146.77708     -16769.286    
    207000   1.0802186      299.15711      39.551912     -16720.742    
    208000   1.0755481      292.94591      77.980207     -16798.016    
    209000   1.0810235      294.7308       118.72149     -16777.211    
    210000   1.0829737      293.67619      72.015454     -16907.3      
    211000   1.0816959      293.76553      561.623       -16792.036    
    212000   1.0594512      299.14805     -721.72031     -16693.308    
    213000   1.0905849      300.87785      222.64478     -16799.197    
    214000   1.0754922      287.61835     -344.20327     -16895.146    
    215000   1.0770827      300.85173      590.40825     -16827.124    
    216000   1.0638453      293.2405       40.184932     -16777.735    
    217000   1.080732       286.13313      205.79977     -16917.467    
    218000   1.0856436      299.255        401.43381     -16742.9      
    219000   1.0817298      287.47462     -479.43567     -16819.815    
    220000   1.0666678      294.29142     -944.15554     -16817.732    
    221000   1.0787114      288.93476      359.01425     -16843.451    
    222000   1.0701301      301.96874     -123.71048     -16698.755    
    223000   1.0842283      300.94834     -5.6791221     -16811.429    
    224000   1.0737175      307.85921     -229.37761     -16775.426    
    225000   1.0917128      298.15719      607.12461     -16884.295    
    226000   1.07406        294.29127     -1232.6444     -16777.008    
    227000   1.0869044      295.52291      794.97054     -16910.628    
    228000   1.0760796      300.72178     -345.10479     -16741.607    
    229000   1.0893429      300.74004      463.8757      -16796.834    
    230000   1.0846175      291.63215      617.77221     -16820.931    
    231000   1.07711        301.63616     -441.67056     -16778.729    
    232000   1.0842881      293.53676     -895.0675      -16800.085    
    233000   1.0873196      302.91995     -500.04614     -16838.271    
    234000   1.0788031      306.46488      398.6928      -16730.049    
    235000   1.0861707      298.32959      616.9685      -16876.043    
    236000   1.0835294      295.95435     -784.12146     -16897.606    
    237000   1.0765855      297.98818     -665.34882     -16879.494    
    238000   1.0836923      300.42875      760.19303     -16807.022    
    239000   1.0870383      310.337       -187.05933     -16735.296    
    240000   1.0880905      300.2428       192.63604     -16924.723    
    241000   1.0750054      302.39924     -359.0056      -16807.108    
    242000   1.0722411      304.8319       116.79829     -16870.731    
    243000   1.0807799      292.04342      194.75964     -16839.748    
    244000   1.0818459      293.97843     -357.472       -16803.325    
    245000   1.074689       292.62954      380.3312      -16827.79     
    246000   1.0797841      294.42842      346.52826     -16832.991    
    247000   1.0668925      294.03008     -159.70902     -16831.592    
    248000   1.0720091      300.88397      369.04128     -16793.946    
    249000   1.0857773      304.41403      123.67743     -16786.214    
    250000   1.0729367      296.74215     -463.23335     -16818.967    
    251000   1.0859655      299.35432      85.677187     -16775.047    
    252000   1.0699764      299.58152     -1188.2216     -16823.586    
    253000   1.0865544      305.39408      19.332309     -16753.863    
    254000   1.0691623      292.75428     -1149.3924     -16847.888    
    255000   1.0891639      293.17738      3.5787272     -16858.437    
    256000   1.0756983      303.25424     -179.51793     -16709.898    
    257000   1.0963732      299.58412      535.41735     -16859.946    
    258000   1.0837748      302.53198      697.56392     -16793.036    
    259000   1.0894972      288.09703      248.32697     -16918.154    
    260000   1.0831224      293.16601      111.52694     -16932.048    
    261000   1.0842389      297.91593     -387.24784     -16829.904    
    262000   1.0894069      290.26534      19.608616     -16834.038    
    263000   1.0900677      295.01712      822.82953     -16957.379    
    264000   1.07558        296.56976      174.85816     -16808.873    
    265000   1.0809905      306.17543      86.939389     -16810.459    
    266000   1.0751745      300.98877     -93.318237     -16785.363    
    267000   1.0668781      291.90887     -387.90593     -16892.888    
    268000   1.0838714      295.35682      623.31744     -16953.572    
    269000   1.0773868      293.7292       266.1422      -16877.992    
    270000   1.0783997      296.67622     -46.633175     -16807.031    
    271000   1.076773       292.79537     -408.68157     -16854.514    
    272000   1.0805708      300.84046     -415.70852     -16771.411    
    273000   1.0717839      296.80808      132.94756     -16819.152    
    274000   1.0685739      303.45657      151.57314     -16755.698    
    275000   1.074822       296.60467     -303.52633     -16858.342    
    276000   1.0788664      304.61094     -405.5024      -16811.926    
    277000   1.0976607      295.68633      469.59646     -16814.879    
    278000   1.0861995      289.87369      365.54082     -16815.769    
    279000   1.0783184      298.89823     -776.8655      -16731.762    
    280000   1.0968464      295.75445      237.78056     -16825.714    
    281000   1.0919316      291.86073      123.3503      -16957.234    
    282000   1.0885619      298.07411      279.16888     -16827.816    
    283000   1.0907001      299.86851      466.32791     -16844.086    
    284000   1.0925755      278.70208      4.2498862     -17000.258    
    285000   1.081866       300.88373      121.65481     -16796.611    
    286000   1.0892434      306.67761     -400.79762     -16741.965    
    287000   1.0826012      289.11524     -295.51372     -16891.127    
    288000   1.0795729      302.84309      617.00598     -16789.895    
    289000   1.0824237      289.1232      -210.41109     -16778.471    
    290000   1.0848508      292.94176     -32.009343     -16800.404    
    291000   1.0861747      302.82776      320.8898      -16709.802    
    292000   1.0875658      300.81778     -500.14848     -16873.12     
    293000   1.0854185      299.52919     -284.30461     -16769.76     
    294000   1.0840569      297.79462      396.79521     -16820.193    
    295000   1.0715903      298.33615     -1154.1762     -16805.476    
    296000   1.0779328      293.88782      303.1407      -16871.834    
    297000   1.0841593      281.64209      494.87033     -16973.674    
    298000   1.0723748      297.44299     -107.24322     -16880.3      
    299000   1.0807739      303.1106       73.672902     -16786.954    
    300000   1.0839136      292.69948     -961.15461     -16941.863    
    301000   1.0824075      293.12705     -99.201427     -16866.778    
    302000   1.0798256      303.09115      144.43841     -16747.514    
    303000   1.080468       293.22881      70.846573     -16860.009    
    304000   1.0821023      299.14578      159.33395     -16865.869    
    305000   1.0742045      291.40261     -861.48827     -16946.914    
    306000   1.0652787      297.03072     -382.65123     -16867.515    
    307000   1.0860059      301.37656      750.91721     -16833.605    
    308000   1.0887431      302.50214      562.4933      -16792.94     
    309000   1.0793044      298.2757      -806.7117      -16894.621    
    310000   1.0811359      293.85199      156.10107     -16789.821    
    311000   1.0759426      303.96824      286.62902     -16705.617    
    312000   1.0800646      293.68994      145.99834     -16819.129    
    313000   1.0770224      295.74051     -191.89305     -16815.216    
    314000   1.0894175      290.596        739.4638      -16872.676    
    315000   1.0916398      298.75373      152.94928     -16805.753    
    316000   1.0814355      293.14374     -305.03186     -16746.807    
    317000   1.0984578      301.27644      32.075255     -16801.609    
    318000   1.0779658      303.89116     -700.76843     -16760.91     
    319000   1.0874759      295.93023     -284.19429     -16857.283    
    320000   1.0857233      300.80993     -81.391209     -16785.747    
    321000   1.0898993      287.97943     -38.839848     -16968.19     
    322000   1.0843302      307.34269     -284.19363     -16773.123    
    323000   1.0864018      291.65729      290.27041     -16789.876    
    324000   1.0808172      291.65106     -95.819752     -16822.771    
    325000   1.0567804      306.54795     -197.89018     -16725.991    
    326000   1.0839707      294.97987      923.58477     -16857.534    
    327000   1.0678487      298.93958     -153.32665     -16719.244    
    328000   1.0776237      295.61387      463.50685     -16841.169    
    329000   1.0833039      303.06895      258.62937     -16752.198    
    330000   1.0924962      301.20229      843.5054      -16804.025    
    331000   1.07484        300.68052      186.29032     -16768.76     
    332000   1.0777626      299.74385     -187.72991     -16877.593    
    333000   1.0782698      306.80543      119.51608     -16752.629    
    334000   1.0792243      296.28052      54.687041     -16816.043    
    335000   1.0828937      293.58324      317.39608     -16826.133    
    336000   1.0754839      297.95953      194.26698     -16812.361    
    337000   1.0793748      296.12027      240.36722     -16782.842    
    338000   1.0812629      293.54106      898.0735      -16754.936    
    339000   1.0780087      303.94719     -328.32579     -16767.045    
    340000   1.087403       293.56489      949.29462     -16792.247    
    341000   1.0877262      293.24342     -55.832873     -16755.219    
    342000   1.0748476      301.73959     -50.958215     -16768.813    
    343000   1.0743119      285.47479      143.44606     -16925.629    
    344000   1.0875079      295.5511       93.440673     -16758.271    
    345000   1.0739687      296.71198     -163.99209     -16879.799    
    346000   1.0822587      298.78803     -153.44297     -16790.595    
    347000   1.093298       288.11871      424.7808      -16867.039    
    348000   1.0946931      293.84353      444.24484     -16808.562    
    349000   1.0762453      301.05673      454.38657     -16707.274    
    350000   1.0737515      299.16014     -582.1158      -16796.561    
    351000   1.0781015      289.78896      413.23375     -16770.68     
    352000   1.0750471      296.06072     -901.94874     -16789.078    
    353000   1.0734076      296.92477      56.479162     -16764.523    
    354000   1.0928244      284.55894      433.0813      -16767.613    
    355000   1.0791012      296.00843     -801.90968     -16697.604    
    356000   1.0810925      289.00533      390.28973     -16795.787    
    357000   1.0734178      306.37664      153.31239     -16661.516    
    358000   1.0694089      300.98543     -564.51577     -16685.346    
    359000   1.0809271      298.14788      288.78994     -16806.87     
    360000   1.070682       298.99225      76.352406     -16801.988    
    361000   1.0773611      298.8319       212.35904     -16828.146    
    362000   1.0740613      295.09232     -392.66333     -16881.458    
    363000   1.0692834      294.24594      227.75927     -16781.448    
    364000   1.0832792      296.1514       580.8519      -16852.075    
    365000   1.076518       293.01897     -319.82917     -16926.37     
    366000   1.0815791      295.73942     -399.64562     -16734.108    
    367000   1.0911936      293.13945      646.96418     -16846.655    
    368000   1.0932048      313.91179     -42.674292     -16682.03     
    369000   1.0772652      293.66958     -364.60355     -16762.412    
    370000   1.0841037      292.75793      538.20683     -16852.617    
    371000   1.073971       298.96685     -170.25529     -16780.844    
    372000   1.0919837      296.83797      277.69684     -16860.246    
    373000   1.0826839      297.05871      124.70987     -16852.816    
    374000   1.0744998      301.77424     -160.94034     -16775.726    
    375000   1.0839798      295.84489      455.46967     -16837.057    
    376000   1.0798284      290.49428      425.62873     -16848.572    
    377000   1.0896679      300.38433      502.25629     -16789.617    
    378000   1.072441       294.56068     -502.05779     -16849.253    
    379000   1.083116       291.00848     -142.93004     -16903.461    
    380000   1.0849681      303.28243     -474.58163     -16849.571    
    381000   1.0864259      305.7708       44.4647       -16818.475    
    382000   1.0799219      301.34016     -9.3314667     -16797.718    
    383000   1.0898526      292.39564      159.98122     -16838.905    
    384000   1.0757839      297.31354      334.83395     -16795.95     
    385000   1.0800887      304.36782      127.18837     -16857.538    
    386000   1.0836976      295.95374      793.34409     -16899.983    
    387000   1.0804562      295.75449      468.39064     -16785.371    
    388000   1.0775148      304.11803      217.25154     -16713.611    
    389000   1.0702939      292.49772      9.742241      -16891.81     
    390000   1.0744697      301.31266     -275.97815     -16929.648    
    391000   1.0817097      294.44359     -313.47175     -16825.778    
    392000   1.0920856      289.84611      172.22288     -16970.278    
    393000   1.0839306      295.20393     -443.887       -16872.086    
    394000   1.0819572      289.24615      237.15484     -16898.374    
    395000   1.0856751      306.18482      700.69024     -16844.967    
    396000   1.0750069      296.52546     -687.7551      -16849.197    
    397000   1.0720628      288.4768      -282.9646      -16783.664    
    398000   1.0637152      298.37099     -846.82422     -16705.022    
    399000   1.074781       295.20945      598.13517     -16818.391    
    400000   1.07414        297.07304     -2.2364977     -16936.035    
    401000   1.067048       295.41555     -128.74339     -16850.249    
    402000   1.0816976      296.04409     -103.67009     -16951.647    
    403000   1.0760043      306.4874      -746.39207     -16720.788    
    404000   1.0866443      301.44437      63.145458     -16746.678    
    405000   1.0706348      306.10608     -110.90773     -16738.441    
    406000   1.0841112      305.63599     -20.335374     -16860.576    
    407000   1.0851415      297.61749      210.59945     -16804.635    
    408000   1.0773979      292.8769      -125.00581     -16839.975    
    409000   1.0802145      301.1386       156.60162     -16874.108    
    410000   1.0801871      297.32361     -254.20009     -16851.113    
    411000   1.0758739      301.85812      143.73427     -16881.942    
    412000   1.0865776      292.19728      80.168358     -16886.117    
    413000   1.0795924      299.19286     -885.94441     -16835.565    
    414000   1.0870933      298.19781     -274.84993     -16802.058    
    415000   1.088202       296.75993      199.06782     -16796.049    
    416000   1.0806023      292.20273     -749.58409     -16809.837    
    417000   1.1002494      306.81091      940.55943     -16792.351    
    418000   1.0739844      295.93471     -481.01043     -16830.149    
    419000   1.0801665      302.54357      22.520981     -16834.636    
    420000   1.0685429      297.43285     -698.67632     -16758.917    
    421000   1.0761976      297.34885      372.12971     -16927.81     
    422000   1.0592107      302.30295      10.947556     -16727.422    
    423000   1.0783516      302.77069      668.87603     -16796.692    
    424000   1.0789695      292.29542     -87.048755     -16840.263    
    425000   1.0784818      298.23098      218.74753     -16871.419    
    426000   1.0725684      296.10232     -45.908851     -16828.225    
    427000   1.0725782      294.56925     -345.24614     -16812.582    
    428000   1.0794984      299.54059     -389.57869     -16853.455    
    429000   1.0784976      300.20722     -759.50438     -16785.49     
    430000   1.0879291      299.39534      40.633052     -16906.144    
    431000   1.0869817      295.45063     -292.8192      -16856.999    
    432000   1.0852115      290.24283     -33.442547     -16853.97     
    433000   1.0771464      291.6808      -347.42354     -16845.477    
    434000   1.0740106      297.68837     -707.59691     -16795.647    
    435000   1.0759526      293.23389      550.41351     -16856.986    
    436000   1.0928339      309.05643      470.21699     -16779.608    
    437000   1.0887876      291.99706     -121.47594     -16818.637    
    438000   1.0769835      294.92636      599.39327     -16658.243    
    439000   1.09654        297.84        -163.65756     -16785.601    
    440000   1.0861361      297.08071     -411.51272     -16780.161    
    441000   1.0966131      301.56442      425.25883     -16874.091    
    442000   1.0722794      290.18385     -461.66242     -16778.876    
    443000   1.0943619      298.27307      1063.0247     -16865.212    
    444000   1.0673998      301.57113     -864.63205     -16825.245    
    445000   1.0814598      294.97011      444.23546     -16881.232    
    446000   1.073995       294.04823      60.277157     -16773.465    
    447000   1.0764171      286.39473      196.49562     -16960.151    
    448000   1.0749021      300.37414      164.03516     -16864.844    
    449000   1.0782912      300.68956     -260.60052     -16828.574    
    450000   1.0891731      299.98029      159.94818     -16853.506    
    451000   1.0791084      290.30354      98.001426     -16920.932    
    452000   1.0874896      294.36623     -74.109753     -16884.116    
    453000   1.0934214      298.09195      105.48597     -16892.056    
    454000   1.0894559      308.66881      140.96294     -16756.47     
    455000   1.0836706      295.09771     -268.13773     -16776.173    
    456000   1.0837771      295.11915     -27.496677     -16870.138    
    457000   1.0757395      294.86148     -150.41641     -16852.498    
    458000   1.0790431      299.76678     -74.989435     -16813.536    
    459000   1.0815373      297.74985      490.49276     -16851.052    
    460000   1.0785127      299.65058     -217.73869     -16868.108    
    461000   1.0793117      299.32367     -68.166871     -16860.977    
    462000   1.0934152      301.03376      374.25829     -16822.173    
    463000   1.0826222      301.18221      31.520329     -16778.413    
    464000   1.0781144      303.58378     -429.26323     -16747.572    
    465000   1.080002       298.45379      606.5351      -16798.565    
    466000   1.0785761      298.2839      -228.58343     -16804.276    
    467000   1.0807268      288.41375      146.38173     -16953.973    
    468000   1.0750334      301.83043      13.402006     -16790.948    
    469000   1.0874441      297.1921       716.81947     -16799.751    
    470000   1.0718514      288.97721     -184.84933     -16834.306    
    471000   1.088039       299.90627     -360.9103      -16901.59     
    472000   1.0879093      303.9748      -116.53533     -16787.901    
    473000   1.0813473      292.47112      338.95442     -16856.442    
    474000   1.0891203      301.18365      118.39137     -16903.888    
    475000   1.0786788      300.25169      395.74691     -16751.831    
    476000   1.0864553      303.98589      94.974879     -16741.001    
    477000   1.0763548      297.98629      185.98529     -16773.906    
    478000   1.085216       289.07548      293.07467     -16901.197    
    479000   1.08678        291.27482      63.067831     -16829.105    
    480000   1.0867266      298.49475      635.76856     -16828.818    
    481000   1.0804846      287.13319     -273.8098      -16929.031    
    482000   1.0814505      286.74127     -84.972596     -16860.412    
    483000   1.0880166      289.54028     -850.50629     -16851.143    
    484000   1.0939542      294.95292      42.221774     -16773.264    
    485000   1.09051        303.5359       574.79923     -16809.738    
    486000   1.0585836      307.30745     -582.17089     -16752.845    
    487000   1.0699626      290.52519      237.20793     -16878.775    
    488000   1.072276       298.94627     -25.90472      -16763.861    
    489000   1.0657667      300.55861     -112.07626     -16874.51     
    490000   1.0733526      303.99322      68.611303     -16760.744    
    491000   1.0815241      297.61066     -245.23923     -16760.889    
    492000   1.0684735      293.22085     -568.67184     -16853.965    
    493000   1.0813298      303.91962      902.10485     -16853.898    
    494000   1.0704928      301.1246      -493.73866     -16775.523    
    495000   1.0826558      293.02806      406.97328     -16910.417    
    496000   1.0793278      306.42454      601.13689     -16756.085    
    497000   1.0904741      288.13738      1006.3265     -16978.764    
    498000   1.0641872      294.33318     -453.3984      -16828.13     
    499000   1.0736384      310.67296     -414.25785     -16673.195    
    500000   1.089428       304.20804      839.77337     -16762.744    
    501000   1.06434        297.73162      262.08711     -16777.208    
    502000   1.0800567      298.16311     -67.757322     -16863.035    
    503000   1.0800687      312.31779     -134.91374     -16812.207    
    504000   1.0713644      297.17939     -834.21537     -16841.445    
    505000   1.0788386      294.31567      584.77175     -16906.015    
    506000   1.0653071      301.12501     -490.67977     -16806.339    
    507000   1.0785041      302.12154     -872.16737     -16869.257    
    508000   1.067915       308.32457      134.7213      -16718.961    
    509000   1.0740147      301.18353      764.43829     -16877.395    
    510000   1.063981       293.77214     -997.54802     -16812.663    
    511000   1.0778179      299.10681      243.8354      -16795.472    
    512000   1.0758593      297.81311     -0.17458026    -16817.391    
    513000   1.0791917      296.83459      23.892665     -16768.613    
    514000   1.0768184      298.96083     -349.59867     -16847.537    
    515000   1.0785164      293.97076      397.19751     -16756.713    
    516000   1.0742124      299.98486     -769.03287     -16724.795    
    517000   1.0896193      295.56419      707.7194      -16805.997    
    518000   1.0734089      295.40837     -2.0348185     -16815.062    
    519000   1.0726471      286.2066      -467.79276     -16920.785    
    520000   1.0819195      304.86783     -158.42897     -16826.052    
    521000   1.0753132      295.39535     -347.67524     -16865.92     
    522000   1.088407       292.97648      211.18224     -16856.231    
    523000   1.0885261      289.89164     -150.95554     -16816.857    
    524000   1.0747115      283.91392     -217.65752     -16833.579    
    525000   1.0770543      295.92502     -329.66393     -16732.411    
    526000   1.0840732      299.36194     -5.5794866     -16840.669    
    527000   1.0888093      305.62441      485.02182     -16744.728    
    528000   1.0764332      303.69672      482.80163     -16773.088    
    529000   1.0865265      291.68094      458.69385     -16810.39     
    530000   1.0883976      301.54097      246.91643     -16849.002    
    531000   1.0778721      297.50172      103.08224     -16814.815    
    532000   1.0882635      293.70241      962.85787     -16851.587    
    533000   1.0805614      297.73305     -708.31698     -16839.434    
    534000   1.0777467      292.06808     -28.397931     -16894.818    
    535000   1.0785911      302.96754      10.513485     -16746.119    
    536000   1.0854697      291.90911     -163.55732     -16904.347    
    537000   1.0911415      295.86245     -485.86302     -16798.458    
    538000   1.0722107      302.78681     -721.00555     -16735.731    
    539000   1.0807168      292.83651      112.3371      -16833.289    
    540000   1.0856371      297.45715     -200.64789     -16739.181    
    541000   1.0834608      297.38516      395.28506     -16855.851    
    542000   1.0808392      298.64255      745.88817     -16790.45     
    543000   1.0739328      288.82025     -19.305705     -16900.069    
    544000   1.0704709      296.71589      172.03525     -16888.452    
    545000   1.0778563      289.13031      498.3846      -16844.456    
    546000   1.0751725      297.71353     -205.42495     -16707.652    
    547000   1.0844048      305.77099      252.53745     -16721.645    
    548000   1.0857139      290.2517       495.17533     -16818.785    
    549000   1.0772857      293.2769      -662.35617     -16769.352    
    550000   1.0955054      303.39186      858.39021     -16696.037    
    551000   1.0757225      298.28695     -183.62008     -16778.182    
    552000   1.0913975      295.40744      445.34743     -16810.861    
    553000   1.08295        297.04318     -179.66058     -16844.802    
    554000   1.0833743      291.45981     -370.30339     -16885.092    
    555000   1.0877872      303.16074      752.79375     -16794.088    
    556000   1.0647896      305.6783      -1121.2185     -16822.891    
    557000   1.0861777      293.39529      601.25447     -16853.322    
    558000   1.0681964      300.77408      150.40926     -16812.29     
    559000   1.0875162      291.61234      543.02946     -16886.034    
    560000   1.0758225      307.96012     -294.20346     -16726.801    
    561000   1.0809469      292.95172      598.9358      -16961.582    
    562000   1.077008       300.65692     -630.21431     -16905.488    
    563000   1.0871038      309.34038     -108.10307     -16823.892    
    564000   1.0722533      307.40202     -403.42702     -16845.185    
    565000   1.0741027      290.75646     -177.28648     -16913.594    
    566000   1.0783812      299.96899     -337.67918     -16811.482    
    567000   1.0768609      299.88776     -521.61835     -16765.94     
    568000   1.0855458      297.94367      256.86459     -16810.473    
    569000   1.0842899      293.51209     -526.92872     -16816.072    
    570000   1.0902022      299.8444       254.44618     -16821.173    
    571000   1.0754465      295.13372     -839.27075     -16917.214    
    572000   1.0902533      290.33998     -227.94392     -16974.189    
    573000   1.0690396      291.23044     -956.06259     -16895.264    
    574000   1.0745257      289.10292     -440.75251     -16860.326    
    575000   1.0886167      295.52425      358.05775     -16843.141    
    576000   1.0717893      297.55845     -848.01935     -16810.722    
    577000   1.0951414      305.01066      291.65358     -16765.969    
    578000   1.0852358      298.69031      288.49198     -16839.615    
    579000   1.0964414      291.71953      95.942951     -16849.836    
    580000   1.0811874      291.44344     -119.385       -16778.298    
    581000   1.0830552      292.34107      5.9340576     -16736.994    
    582000   1.0727888      292.93586     -0.73872944    -16800.293    
    583000   1.0777749      292.75659      302.28022     -16843.442    
    584000   1.0822611      303.85758     -81.713969     -16765.199    
    585000   1.0885378      292.83632     -954.8624      -16914.766    
    586000   1.0674866      300.38612     -893.14028     -16737.116    
    587000   1.090404       298.97257     -38.21834      -16906.38     
    588000   1.0819649      291.94795     -87.064308     -16938.748    
    589000   1.090011       303.30151      615.90118     -16765.791    
    590000   1.0822372      302.77106     -91.98407      -16624.395    
    591000   1.0914857      295.88067     -686.60485     -16827.686    
    592000   1.0953261      294.4489       269.39263     -16842.945    
    593000   1.0728369      296.17653     -18.931487     -16745.573    
    594000   1.0825487      286.29628      254.29311     -16866.185    
    595000   1.0684632      303.88082      432.31558     -16739.183    
    596000   1.0694306      298.94412      199.50573     -16865.614    
    597000   1.0734719      303.98118      199.65584     -16705.922    
    598000   1.0674493      296.1338      -198.18734     -16769.462    
    599000   1.0690509      290.23149     -632.72866     -16880.593    
    600000   1.0685751      303.15288      62.953228     -16767.751    
    601000   1.0705217      305.65128     -1579.4395     -16802.251    
    602000   1.0726277      293.78858     -37.281982     -16901.082    
    603000   1.0662801      303.48895     -477.29905     -16736.638    
    604000   1.0782962      293.76999      718.03546     -16843.89     
    605000   1.0754937      300.73766      112.09011     -16835.674    
    606000   1.0698871      295.4338      -373.2305      -16862.2      
    607000   1.0705568      296.45239      200.70193     -16869.623    
    608000   1.0753219      299.44081     -396.06922     -16831.166    
    609000   1.0661846      300.84549      152.81553     -16798.712    
    610000   1.0902938      300.28143      188.34049     -16898.317    
    611000   1.0778585      296.49704     -130.05516     -16888.986    
    612000   1.0791881      297.91299      733.42065     -16738.861    
    613000   1.0732602      302.44927     -468.87069     -16807.039    
    614000   1.0872997      295.45172      452.42315     -16876.341    
    615000   1.075162       293.13717      292.71695     -16917.471    
    616000   1.0730751      297.08667     -471.98705     -16899.46     
    617000   1.0812731      297.70869      439.52704     -16791.685    
    618000   1.0745247      296.80792     -230.15974     -16866.428    
    619000   1.0731097      290.49899     -66.440106     -16787.813    
    620000   1.0724107      308.09149      159.67209     -16740.213    
    621000   1.0831775      292.8715       8.2545992     -16844.399    
    622000   1.0702338      298.31886     -210.36496     -16772.438    
    623000   1.0814105      300.36019     -832.4174      -16739.104    
    624000   1.0793056      297.10735     -729.02009     -16737.531    
    625000   1.0802645      294.36362      293.3703      -16847.689    
    626000   1.0838757      296.84955      578.57963     -16793.217    
    627000   1.0691094      291.64652     -438.90713     -16843.249    
    628000   1.085212       296.6958       353.76695     -16730.925    
    629000   1.0867065      291.20033     -33.106727     -16864.86     
    630000   1.0847596      306.96486      345.83697     -16820.684    
    631000   1.0699488      297.02955     -589.28996     -16856.033    
    632000   1.0808477      298.61935     -37.877235     -16927.291    
    633000   1.0830828      300.76698      92.940153     -16786.022    
    634000   1.0759282      302.07055     -129.83583     -16749.984    
    635000   1.0819888      302.304       -21.067266     -16836.319    
    636000   1.0764574      302.80022      549.8372      -16803.762    
    637000   1.0852785      294.26086     -161.16125     -16860.942    
    638000   1.0887904      288.25912      85.884523     -16936.967    
    639000   1.0872601      293.67847      736.2797      -16791.137    
    640000   1.0845464      296.48844     -8.9141999     -16828.06     
    641000   1.0746785      300.81001     -87.694988     -16816.89     
    642000   1.0723029      299.36824      148.4874      -16711.595    
    643000   1.0782328      299.9445      -149.12685     -16744.444    
    644000   1.0724825      300.08705     -462.23845     -16795.03     
    645000   1.0786001      297.73077     -372.69862     -16886.828    
    646000   1.0764782      299.16879     -845.33526     -16774.443    
    647000   1.0938659      313.00037      662.26346     -16730.375    
    648000   1.0772351      293.37371     -614.74092     -16819.343    
    649000   1.0849436      304.28399      1080.6477     -16831.773    
    650000   1.0711735      303.667       -325.98546     -16792.563    
    651000   1.0780119      295.63915     -715.44849     -16872.974    
    652000   1.0744193      293.56584     -240.19549     -16897.644    
    653000   1.0657851      299.21421     -860.59215     -16887.538    
    654000   1.0811273      300.57571      767.31829     -16846.545    
    655000   1.0852191      303.67977      870.92754     -16765.549    
    656000   1.0734072      296.95741     -169.26788     -16828.114    
    657000   1.0921147      297.03774      3.9828954     -16782.234    
    658000   1.0805327      298.98666      668.18084     -16780.516    
    659000   1.0933905      292.08084      453.20154     -16899.717    
    660000   1.082764       297.87447      1040.7107     -16717.548    
    661000   1.085124       299.86001      746.18428     -16782.038    
    662000   1.0877801      296.29399      24.166753     -16845.478    
    663000   1.0913222      292.40006     -75.568065     -16850.914    
    664000   1.0784071      295.3936      -266.70465     -16805.877    
    665000   1.0823893      299.74904      183.32429     -16791.295    
    666000   1.0784576      294.15176     -342.64442     -16839.114    
    667000   1.0881398      299.65626      427.2668      -16772.556    
    668000   1.0759765      301.21829     -429.99292     -16786.216    
    669000   1.0838308      300.79393      778.37304     -16750.794    
    670000   1.069169       306.78726     -133.68433     -16690.534    
    671000   1.0791317      285.58038      39.441367     -16873.45     
    672000   1.0724587      293.95432     -486.43779     -16736.236    
    673000   1.0771454      290.16178     -714.34112     -16920.653    
    674000   1.0816951      303.75875     -226.3172      -16806.053    
    675000   1.0825804      290.61352     -347.59526     -16933.585    
    676000   1.0825212      299.53947     -28.406677     -16757.565    
    677000   1.076564       301.57323      124.2531      -16748.639    
    678000   1.0734288      292.99117     -1186.0871     -16840.046    
    679000   1.0876157      298.39726      214.97553     -16872.487    
    680000   1.0802317      296.74186     -80.191281     -16766.446    
    681000   1.0890758      287.05453      228.85444     -16920.649    
    682000   1.0746799      300.77409     -70.968428     -16726.004    
    683000   1.0849556      296.49255      520.80258     -16858.541    
    684000   1.0810069      291.90437     -47.436753     -16846.95     
    685000   1.0711117      305.95232     -28.427805     -16815.806    
    686000   1.0716579      297.64947     -817.87273     -16797.812    
    687000   1.0844693      294.52957      319.0153      -16854.065    
    688000   1.0772741      293.17774     -880.92369     -16934.234    
    689000   1.0812858      290.78635     -355.97032     -16889.508    
    690000   1.0796927      304.08759      608.79233     -16864.891    
    691000   1.0744589      297.88221     -124.08889     -16850.564    
    692000   1.0824039      296.43878     -156.27969     -16876.987    
    693000   1.0738659      286.98111     -131.13426     -16866.743    
    694000   1.0932866      289.6974       244.38634     -16861.504    
    695000   1.077414       296.57312     -45.435974     -16828.106    
    696000   1.0829879      303.36084     -683.29749     -16750.635    
    697000   1.0901172      292.826       -235.88738     -16808.169    
    698000   1.068671       299.50636     -472.44863     -16719.897    
    699000   1.0819362      300.58019     -1208.0452     -16831.346    
    700000   1.0836684      306.68504     -597.51725     -16833.959    
    701000   1.0682473      297.89796     -698.91927     -16810.93     
    702000   1.0779195      297.57439     -113.27333     -16885.288    
    703000   1.0704004      290.36913     -404.9659      -16842.391    
    704000   1.0773786      298.65786     -450.84312     -16870.044    
    705000   1.0755635      291.55644      283.40312     -16824.73     
    706000   1.0813315      301.5635       745.32454     -16889.119    
    707000   1.0879091      303.34891      472.57263     -16920.669    
    708000   1.082032       293.48073     -60.080553     -16846.288    
    709000   1.0820325      290.94356     -677.60916     -16983.154    
    710000   1.0839649      300.7558      -120.67052     -16785.755    
    711000   1.0863436      296.92759      448.09907     -16775.974    
    712000   1.0708841      293.39551     -739.9551      -16884.327    
    713000   1.0811738      300.39124      337.27883     -16911.346    
    714000   1.0743485      300.57929     -840.02918     -16808.205    
    715000   1.0863932      297.96166      562.35835     -16828.262    
    716000   1.074694       297.74061     -130.88221     -16819.064    
    717000   1.0829757      296.23013      549.82146     -16918.221    
    718000   1.0908681      300.09574      232.57631     -16896.554    
    719000   1.0802835      301.64481      76.081126     -16770.081    
    720000   1.0892254      297.63623      200.41475     -16771.308    
    721000   1.0776635      291.06381     -434.62928     -16841.838    
    722000   1.0931963      295.08803      635.82299     -16761.788    
    723000   1.0859484      292.65031     -697.06652     -16830.019    
    724000   1.0876149      292.15904      327.15336     -16937.554    
    725000   1.0813577      300.91987      786.38387     -16860.544    
    726000   1.0805147      295.90722      640.62319     -16758.954    
    727000   1.0793768      292.83141     -397.11724     -16845.097    
    728000   1.0828056      291.51434      200.34009     -16844.902    
    729000   1.0929588      292.64283      272.72462     -16923.863    
    730000   1.0722904      303.75976      98.507986     -16774.41     
    731000   1.071986       289.53118     -361.17853     -16901.376    
    732000   1.0793202      295.07332     -61.005697     -16817.973    
    733000   1.0803384      301.45351      149.76954     -16838.071    
    734000   1.0692687      287.17158     -1002.6211     -16922.346    
    735000   1.0846821      302.30035      427.15678     -16800.069    
    736000   1.0817206      291.86626      1491.9624     -16804.629    
    737000   1.0804439      298.40382      3.7889286     -16814.493    
    738000   1.0817144      295.44469     -275.2699      -16932.857    
    739000   1.0666199      296.56078     -167.34709     -16853.292    
    740000   1.0671482      291.41779     -400.66886     -16854.081    
    741000   1.0792228      299.78667      526.36142     -16754.348    
    742000   1.0789792      300.54957      724.09615     -16743.317    
    743000   1.0624692      300.14916     -551.91045     -16784.858    
    744000   1.0741888      293.24837      377.07594     -16833.301    
    745000   1.0802756      309.01013      106.74017     -16779.061    
    746000   1.073395       301.15645     -178.37804     -16753.027    
    747000   1.0906015      299.15273     -135.3321      -16874.691    
    748000   1.0819464      296.50771     -335.04676     -16850.517    
    749000   1.0673258      298.57686     -422.81338     -16729.456    
    750000   1.0888761      292.13452      525.71627     -16865.787    
    751000   1.0687539      296.12246     -27.736734     -16814.339    
    752000   1.0822291      294.36567      141.55639     -16874.635    
    753000   1.0906455      304.47974      754.33114     -16746.385    
    754000   1.0920721      294.94541     -64.124787     -16791.699    
    755000   1.0796665      298.15738     -320.84203     -16804.042    
    756000   1.0746272      290.61861      196.12635     -16830.491    
    757000   1.0857901      309.5381       75.173144     -16786.242    
    758000   1.0740182      289.4772       61.206144     -16853.374    
    759000   1.0769478      304.31443      116.36412     -16746.536    
    760000   1.0827453      303.61653     -257.56898     -16762.857    
    761000   1.0731897      309.30035     -503.75511     -16696.11     
    762000   1.082565       294.36047      396.09937     -16830.79     
    763000   1.0874866      294.19319      80.466601     -16823.655    
    764000   1.0820602      315.76237     -126.91312     -16693.475    
    765000   1.0833907      299.07442      32.266268     -16755.036    
    766000   1.0899439      298.18705      270.77201     -16810.2      
    767000   1.0744179      296.17478      228.77159     -16851.865    
    768000   1.0832466      299.30281      259.84776     -16837.419    
    769000   1.0714535      290.73277      464.71708     -16823.675    
    770000   1.0867903      292.69737     -94.644007     -16816.163    
    771000   1.0852278      295.15745      572.35941     -16886.749    
    772000   1.0724099      294.29128      288.83508     -16799.086    
    773000   1.0757691      295.94597     -350.84075     -16840.383    
    774000   1.0729201      304.45645     -620.67802     -16720.434    
    775000   1.0690395      297.89329     -24.252576     -16911.6      
    776000   1.0765621      296.09689      549.57981     -16847.446    
    777000   1.0904048      300.35958      273.6538      -16844.688    
    778000   1.0585376      293.63036     -817.92398     -16855.209    
    779000   1.0766162      290.87711      385.79163     -16988.457    
    780000   1.0820869      302.22932      40.23927      -16807.552    
    781000   1.0851116      291.95627      554.20489     -16894.086    
    782000   1.0811734      300.75189     -741.75343     -16759.325    
    783000   1.0740341      292.96568     -182.28794     -16946.619    
    784000   1.0769007      308.62978      874.21403     -16740.146    
    785000   1.0716853      299.27276      196.95016     -16733.074    
    786000   1.0831191      298.18952     -111.10418     -16764.287    
    787000   1.0771963      304.89061     -324.55105     -16744.291    
    788000   1.0872013      300.35677      809.10672     -16816.064    
    789000   1.075103       293.02873     -187.70906     -16878.525    
    790000   1.0809287      294.17692     -327.2148      -16788.382    
    791000   1.0571829      290.92332     -987.4467      -16866.129    
    792000   1.0871348      290.89706      998.7862      -16846.721    
    793000   1.0801974      304.89105      75.256715     -16713.406    
    794000   1.0863797      302.00762      295.84853     -16836.999    
    795000   1.0720665      298.73073     -315.6244      -16736.2      
    796000   1.0806501      298.35238      161.27178     -16826.051    
    797000   1.0815412      297.43136     -348.65648     -16782.757    
    798000   1.0809435      303.77864     -35.32936      -16781.936    
    799000   1.0928291      294.12897      167.34101     -16816.706    
    800000   1.0820283      303.7427      -234.11906     -16749.063    
    801000   1.0888203      290.92494      632.15056     -16830.905    
    802000   1.092718       293.70666     -431.10716     -16950.264    
[...]
  10291000   1.0801802      304.1892       917.19414     -16538.146    
  10292000   1.0801802      298.85435     -677.7535      -16556.582    
  10293000   1.0801802      297.3895       559.91519     -16547.154    
  10294000   1.0801802      291.06092     -327.6381      -16544.934    
  10295000   1.0801802      298.57319     -18.994603     -16551.603    
  10296000   1.0801802      299.46034     -50.634498     -16612.116    
  10297000   1.0801802      300.13898     -47.745135     -16574.379    
  10298000   1.0801802      294.02656      501.63261     -16635.739    
  10299000   1.0801802      299.16878     -268.62371     -16505.337    
  10300000   1.0801802      300.20382      164.13269     -16652.647    
  10301000   1.0801802      304.29997     -168.41863     -16569.951    
  10302000   1.0801802      294.99853     -77.575614     -16533.785    
  10303000   1.0801802      293.91175      958.08727     -16582.711    
  10304000   1.0801802      296.97034     -373.30009     -16696.35     
  10305000   1.0801802      299.52839     -552.63287     -16561.291    
  10306000   1.0801802      298.66654     -217.43163     -16568.547    
  10307000   1.0801802      291.17272     -158.2722      -16692.056    
  10308000   1.0801802      305.50531     -438.18672     -16515.734    
  10309000   1.0801802      288.50889     -1120.6557     -16682.715    
  10310000   1.0801802      299.89539     -243.84333     -16560.045    
  10311000   1.0801802      286.32658     -201.01172     -16659.158    
  10312000   1.0801802      295.50439     -642.27891     -16525.748    
  10313000   1.0801802      294.64158     -622.175       -16611.26     
  10314000   1.0801802      308.55035     -399.26928     -16480.323    
  10315000   1.0801802      302.01291     -177.87944     -16510.805    
  10316000   1.0801802      292.33184      182.41905     -16606.335    
  10317000   1.0801802      292.3782       140.00534     -16668.774    
  10318000   1.0801802      296.79644     -55.968627     -16654.98     
  10319000   1.0801802      294.2083       99.380699     -16611.599    
  10320000   1.0801802      298.35169      213.61452     -16575.057    
  10321000   1.0801802      300.62283     -1.3652785     -16592.996    
  10322000   1.0801802      307.74451      381.83809     -16476.926    
  10323000   1.0801802      289.5638      -1048.0851     -16581.762    
  10324000   1.0801802      300.63071      339.66091     -16636.931    
  10325000   1.0801802      299.19183      666.42143     -16587.304    
  10326000   1.0801802      299.04188     -85.80026      -16640.286    
  10327000   1.0801802      290.64512      85.069507     -16671.144    
  10328000   1.0801802      298.72001     -89.930825     -16659.307    
  10329000   1.0801802      298.49018     -52.87145      -16574.354    
  10330000   1.0801802      296.63736     -21.323153     -16592.098    
  10331000   1.0801802      297.48436      201.65053     -16625.525    
  10332000   1.0801802      297.91769     -263.84859     -16633.072    
  10333000   1.0801802      299.65204     -7.5085516     -16612.214    
  10334000   1.0801802      300.17762     -162.18503     -16587.414    
  10335000   1.0801802      297.4721       973.52028     -16694.109    
  10336000   1.0801802      300.14622      825.32937     -16647.449    
  10337000   1.0801802      289.02628     -630.45093     -16728.179    
  10338000   1.0801802      294.93655     -58.690367     -16642.149    
  10339000   1.0801802      294.72531      21.307162     -16564.883    
  10340000   1.0801802      288.54331     -709.55773     -16651.849    
  10341000   1.0801802      298.43554      375.60448     -16557.285    
  10342000   1.0801802      294.08644     -660.511       -16607.287    
  10343000   1.0801802      303.84402     -630.62446     -16532.738    
  10344000   1.0801802      299.39265      267.2563      -16599.136    
  10345000   1.0801802      300.55085      633.05482     -16573.077    
  10346000   1.0801802      311.38668      53.516837     -16514.423    
  10347000   1.0801802      295.86338      327.83302     -16569.605    
  10348000   1.0801802      298.99782      231.52718     -16653.325    
  10349000   1.0801802      299.42515     -5.1514387     -16561.576    
  10350000   1.0801802      295.80075      151.57546     -16622.078    
  10351000   1.0801802      296.54367      438.40472     -16658.276    
  10352000   1.0801802      295.73693     -138.62533     -16716.47     
  10353000   1.0801802      284.94287      203.50274     -16710.701    
  10354000   1.0801802      305.31132      290.02182     -16553.668    
  10355000   1.0801802      296.35302     -147.04007     -16672.736    
  10356000   1.0801802      293.16621     -169.9253      -16651.753    
  10357000   1.0801802      293.58901      358.49472     -16627.714    
  10358000   1.0801802      290.5697       250.62332     -16570.277    
  10359000   1.0801802      296.55452      126.73142     -16596.354    
  10360000   1.0801802      303.51828     -20.7355       -16501.169    
  10361000   1.0801802      291.22083      888.37599     -16621.004    
  10362000   1.0801802      294.09578      562.53838     -16611.726    
  10363000   1.0801802      306.48336      298.87362     -16507.735    
  10364000   1.0801802      300.89918      326.89461     -16505.74     
  10365000   1.0801802      294.3089      -260.05748     -16580.128    
  10366000   1.0801802      302.7916       369.94748     -16586.745    
  10367000   1.0801802      294.8495      -1055.2065     -16680.347    
  10368000   1.0801802      292.21448     -758.20659     -16671.014    
  10369000   1.0801802      302.96512     -948.80765     -16571.801    
  10370000   1.0801802      300.81737      933.52365     -16577.69     
  10371000   1.0801802      300.61665     -77.579833     -16529.051    
  10372000   1.0801802      290.29335     -767.23899     -16592.756    
  10373000   1.0801802      301.35168      169.74185     -16466.886    
  10374000   1.0801802      298.51154      328.09817     -16537.27     
  10375000   1.0801802      290.22267     -128.74242     -16662.602    
  10376000   1.0801802      300.42166     -65.979162     -16600.298    
  10377000   1.0801802      303.21538     -898.82208     -16601.514    
  10378000   1.0801802      285.95643      165.62587     -16670.923    
  10379000   1.0801802      299.25641     -286.6092      -16573.83     
  10380000   1.0801802      292.92471      252.18481     -16627.636    
  10381000   1.0801802      296.44477     -393.54452     -16553.185    
  10382000   1.0801802      292.84991      237.31798     -16599.287    
  10383000   1.0801802      294.59714     -676.43472     -16608.165    
  10384000   1.0801802      303.21101     -379.35494     -16530.07     
  10385000   1.0801802      294.94506      224.58311     -16590.8      
  10386000   1.0801802      300.75931     -191.74285     -16572.371    
  10387000   1.0801802      295.59263     -34.406923     -16660.518    
  10388000   1.0801802      300.37613     -34.412678     -16545.42     
  10389000   1.0801802      291.88207      147.08436     -16573.549    
  10390000   1.0801802      291.07443      288.62529     -16609.24     
  10391000   1.0801802      298.27196      613.47707     -16630.748    
  10392000   1.0801802      306.73832      185.77193     -16540.391    
  10393000   1.0801802      294.74723      295.58595     -16625.606    
  10394000   1.0801802      309.85616      830.7364      -16538.163    
  10395000   1.0801802      301.39867      12.894113     -16579.663    
  10396000   1.0801802      300.28464     -510.94299     -16529.628    
  10397000   1.0801802      290.2171      -572.01579     -16657.585    
  10398000   1.0801802      308.74499      273.30757     -16553.222    
  10399000   1.0801802      295.25548      162.01241     -16620.088    
  10400000   1.0801802      298.2242      -116.45627     -16625.042    
  10401000   1.0801802      299.04684      236.86541     -16592.017    
  10402000   1.0801802      297.91923      235.30819     -16645.591    
  10403000   1.0801802      300.11131     -408.97466     -16518.673    
  10404000   1.0801802      295.21451     -603.61862     -16625.893    
  10405000   1.0801802      295.67375     -322.29126     -16683.668    
  10406000   1.0801802      298.71212      72.452205     -16648.581    
  10407000   1.0801802      297.84632     -242.55665     -16619.734    
  10408000   1.0801802      303.92432      184.01569     -16538.24     
  10409000   1.0801802      295.38487      78.600287     -16697.772    
  10410000   1.0801802      292.0993      -442.13273     -16661.667    
  10411000   1.0801802      296.22064     -563.90449     -16688.8      
  10412000   1.0801802      293.86222     -572.21906     -16655.495    
  10413000   1.0801802      295.73792     -272.71346     -16532.941    
  10414000   1.0801802      296.92272     -570.6262      -16635.18     
  10415000   1.0801802      296.88414     -60.145349     -16655.283    
  10416000   1.0801802      300.92126      328.00728     -16594.213    
  10417000   1.0801802      299.32741      1100.7948     -16612.068    
  10418000   1.0801802      300.56014      388.01964     -16565.466    
  10419000   1.0801802      302.16966      269.39489     -16518.504    
  10420000   1.0801802      302.98281     -836.05004     -16507.771    
  10421000   1.0801802      298.06151      24.550161     -16468.084    
  10422000   1.0801802      300.04408     -167.28801     -16619.199    
  10423000   1.0801802      295.5289       339.33881     -16598.714    
  10424000   1.0801802      292.96362     -408.21808     -16619.854    
  10425000   1.0801802      295.03629      293.06296     -16616.372    
  10426000   1.0801802      296.07061      911.94075     -16525.316    
  10427000   1.0801802      289.99912     -636.45865     -16659.264    
  10428000   1.0801802      300.87044     -395.54408     -16505.707    
  10429000   1.0801802      292.78716     -220.0441      -16736.101    
  10430000   1.0801802      308.05487      308.69775     -16613.225    
  10431000   1.0801802      297.35534      708.11968     -16652.513    
  10432000   1.0801802      306.93273      376.58711     -16537.902    
  10433000   1.0801802      299.11206      430.81305     -16554.634    
  10434000   1.0801802      296.88742      443.0119      -16615.095    
  10435000   1.0801802      300.159        574.13668     -16620.7      
  10436000   1.0801802      301.02989      815.26897     -16616.997    
  10437000   1.0801802      305.81616      96.175503     -16586.154    
  10438000   1.0801802      297.47982      143.94292     -16571.97     
  10439000   1.0801802      301.91132     -647.52198     -16592.104    
  10440000   1.0801802      292.74122      103.13848     -16619.884    
  10441000   1.0801802      296.54461      172.25975     -16606.283    
  10442000   1.0801802      301.03947      448.99794     -16550.135    
  10443000   1.0801802      300.67943      199.99761     -16582.612    
  10444000   1.0801802      301.37055      508.09711     -16559.328    
  10445000   1.0801802      293.76864      411.14066     -16632.286    
  10446000   1.0801802      296.63658     -150.97511     -16538.932    
  10447000   1.0801802      302.22756      23.566063     -16513.772    
  10448000   1.0801802      296.10227     -53.405226     -16567.151    
  10449000   1.0801802      293.56292     -197.4601      -16562.257    
  10450000   1.0801802      290.28324      530.97216     -16614.951    
  10451000   1.0801802      293.93714     -167.74533     -16623.982    
  10452000   1.0801802      292.70615     -174.65565     -16608.692    
  10453000   1.0801802      298.37978      137.25475     -16566.227    
  10454000   1.0801802      296.65099     -779.22393     -16602.311    
  10455000   1.0801802      299.58235      353.95604     -16486.279    
  10456000   1.0801802      300.31171     -207.01358     -16548.633    
  10457000   1.0801802      293.84982     -629.75877     -16612.171    
  10458000   1.0801802      298.48541     -156.40171     -16643.543    
  10459000   1.0801802      302.50983      751.8961      -16663.2      
  10460000   1.0801802      309.6948       1010.452      -16547.348    
  10461000   1.0801802      297.03393      378.1952      -16652.118    
  10462000   1.0801802      296.65747      494.56235     -16567.844    
  10463000   1.0801802      300.09775      242.48393     -16549.672    
  10464000   1.0801802      296.19905     -449.5335      -16574.366    
  10465000   1.0801802      288.44009     -206.77656     -16547.536    
  10466000   1.0801802      308.57074      333.91046     -16479.735    
  10467000   1.0801802      300.86557      608.26307     -16520.679    
  10468000   1.0801802      300.30583      441.90856     -16590.329    
  10469000   1.0801802      296.60896      560.70046     -16591.319    
  10470000   1.0801802      304.24082     -518.3815      -16612.032    
  10471000   1.0801802      296.81258     -219.08904     -16605.815    
  10472000   1.0801802      298.02399      959.09247     -16626.963    
  10473000   1.0801802      292.25337     -505.18467     -16664.643    
  10474000   1.0801802      296.85859      333.32912     -16545.42     
  10475000   1.0801802      291.03688     -13.142891     -16618.224    
  10476000   1.0801802      303.34035     -302.07578     -16602.833    
  10477000   1.0801802      294.00482      433.86856     -16549.026    
  10478000   1.0801802      298.74985      392.65286     -16540.984    
  10479000   1.0801802      285.54126      623.50423     -16638.6      
  10480000   1.0801802      301.45393     -195.41547     -16496.597    
  10481000   1.0801802      289.90692      253.63637     -16539.447    
  10482000   1.0801802      293.97507      329.1459      -16579.397    
  10483000   1.0801802      304.75268      583.97451     -16515.069    
  10484000   1.0801802      308.30318      60.53724      -16477.726    
  10485000   1.0801802      285.8153      -156.69546     -16547.445    
  10486000   1.0801802      303.75196     -350.06724     -16541.491    
  10487000   1.0801802      298.46129      139.8753      -16591.152    
  10488000   1.0801802      287.513       -53.24117      -16687.651    
  10489000   1.0801802      292.39566     -781.23397     -16592.828    
  10490000   1.0801802      289.98921     -243.68607     -16640.067    
  10491000   1.0801802      296.20894     -494.24547     -16589.431    
  10492000   1.0801802      288.50731      68.425078     -16690.568    
  10493000   1.0801802      302.03101      66.441658     -16620.039    
  10494000   1.0801802      286.45863     -74.905049     -16734.833    
  10495000   1.0801802      302.02382      544.26238     -16545.988    
  10496000   1.0801802      295.89137     -126.91536     -16622.195    
  10497000   1.0801802      291.227        272.06857     -16672.501    
  10498000   1.0801802      292.963       -327.56819     -16681.665    
  10499000   1.0801802      300.88125      2.1711724     -16570.062    
  10500000   1.0801802      299.88174      251.94569     -16574.999    
  10501000   1.0801802      302.1413      -749.51565     -16517.551    
  10502000   1.0801802      303.60075     -519.83888     -16467.573    
  10503000   1.0801802      292.83078     -673.03959     -16672.585    
  10504000   1.0801802      298.14142      124.6471      -16662.814    
  10505000   1.0801802      306.04071      272.32511     -16530.932    
  10506000   1.0801802      297.13495      471.38748     -16599.465    
  10507000   1.0801802      291.3649       318.20326     -16601.296    
  10508000   1.0801802      298.86328     -273.53187     -16536.383    
  10509000   1.0801802      302.98447      336.51174     -16511.544    
  10510000   1.0801802      292.59484      371.58099     -16603.241    
  10511000   1.0801802      294.03857      80.141734     -16604.999    
  10512000   1.0801802      293.36232     -509.47838     -16620.614    
  10513000   1.0801802      296.55555      191.70126     -16617.275    
  10514000   1.0801802      295.2604      -624.89979     -16611.194    
  10515000   1.0801802      295.26762      750.63348     -16598.763    
  10516000   1.0801802      294.79957     -106.79087     -16641.81     
  10517000   1.0801802      292.99023      15.184736     -16682.609    
  10518000   1.0801802      296.53586      235.90126     -16663.835    
  10519000   1.0801802      300.38213      453.08219     -16565.532    
  10520000   1.0801802      298.34362     -949.28646     -16578.339    
  10521000   1.0801802      290.51043      253.21827     -16622.635    
  10522000   1.0801802      302.80453     -345.15282     -16573.297    
  10523000   1.0801802      308.65441     -106.41196     -16477.099    
  10524000   1.0801802      298.57515     -320.59257     -16587.93     
  10525000   1.0801802      304.19123     -248.73571     -16515.899    
  10526000   1.0801802      299.28119     -435.09486     -16595.37     
  10527000   1.0801802      299.16118     -29.845797     -16539.121    
  10528000   1.0801802      302.05841      1013.0873     -16556.494    
  10529000   1.0801802      300.33628      245.75861     -16574.383    
  10530000   1.0801802      311.88639      40.647912     -16505.13     
  10531000   1.0801802      289.35118      682.69336     -16719.573    
  10532000   1.0801802      285.55378      231.67917     -16680.776    
  10533000   1.0801802      298.67392      190.35465     -16586.08     
  10534000   1.0801802      298.05736     -304.30574     -16607.794    
  10535000   1.0801802      294.2284       182.80058     -16659.103    
  10536000   1.0801802      292.89863     -330.5589      -16683.441    
  10537000   1.0801802      298.92963     -68.968973     -16655.689    
  10538000   1.0801802      295.10878      112.26044     -16575.204    
  10539000   1.0801802      304.15454     -995.28265     -16596.978    
  10540000   1.0801802      304.79248      636.20519     -16581.277    
  10541000   1.0801802      289.65326     -294.22233     -16625.854    
  10542000   1.0801802      299.13522      483.27154     -16590.083    
  10543000   1.0801802      297.14198     -353.34854     -16579.94     
  10544000   1.0801802      294.59061      179.98471     -16502.146    
  10545000   1.0801802      301.79149      147.2064      -16549.733    
  10546000   1.0801802      298.26585     -452.06029     -16529.674    
  10547000   1.0801802      302.78662      266.25677     -16446.078    
  10548000   1.0801802      288.20746     -359.90962     -16586.796    
  10549000   1.0801802      296.25815     -267.97046     -16606.192    
  10550000   1.0801802      303.1933       655.46742     -16488.974    
Loop time of 1499.08 on 24 procs for 500000 steps with 3162 atoms

Performance: 28.818 ns/day, 0.833 hours/ns, 333.537 timesteps/s
99.2% CPU use with 24 MPI tasks x no OpenMP threads

MPI task timing breakdown:
Section |  min time  |  avg time  |  max time  |%varavg| %total
---------------------------------------------------------------
Pair    | 540.81     | 597.27     | 654.49     | 117.8 | 39.84
Bond    | 2.2667     | 2.4492     | 2.5746     |   5.5 |  0.16
Kspace  | 312.76     | 370.28     | 424.76     | 144.6 | 24.70
Neigh   | 92.827     | 93.386     | 93.826     |   2.5 |  6.23
Comm    | 71.567     | 74.094     | 76.855     |  17.3 |  4.94
Output  | 91.733     | 91.934     | 96.494     |   9.9 |  6.13
Modify  | 254.55     | 259.66     | 260.62     |   7.2 | 17.32
Other   |            | 10.01      |            |       |  0.67

Nlocal:         131.75 ave         154 max         119 min
Histogram: 4 1 5 2 6 3 2 0 0 1
Nghost:        4585.83 ave        4613 max        4562 min
Histogram: 2 0 5 2 4 5 2 0 2 2
Neighs:        52895.8 ave       62387 max       47150 min
Histogram: 2 4 6 2 4 2 1 0 1 2

Total # of neighbors = 1269499
Ave neighs/atom = 401.48608
Ave special neighs/atom = 2.0341556
Neighbor list builds = 60572
Dangerous builds = 0

quit
