3162
 Atoms. Timestep: 0
Ow 12.3173 0.245765 15.9612
H 12.7426 0.152786 16.8136
H 12.8233 0.923081 15.513
Ow 16.6572 17.1933 12.5854
H 16.4303 17.757 13.3249
H 15.8175 16.9844 12.1763
Ow 27.5648 6.20566 16.7654
H 27.3211 6.02119 15.8584
H 26.8251 5.88634 17.2823
Ow 16.3352 18.8902 6.60081
H 16.3201 17.9332 6.59485
H 16.6793 19.1194 7.46407
Ow 26.9117 31.4334 19.875
H 26.1563 0.290203 19.3406
H 27.3629 0.873438 20.0446
Ow 16.2345 21.4786 30.2427
H 15.3398 21.5787 30.5681
H 16.1343 21.0523 29.3916
Ow 1.06293 15.0087 28.9131
H 1.05672 14.3865 28.1858
H 1.78867 15.6011 28.716
Ow 22.9849 20.8413 19.4175
H 22.6772 20.046 19.8522
H 23.021 20.6091 18.4897
Ow 21.0564 27.9232 29.9702
H 21.9879 28.0677 30.1365
H 20.9182 28.2481 29.0805
Ow 30.952 11.1351 18.705
H 0.485019 11.3966 18.6709
H 30.5443 11.7679 19.2961
Ow 16.2245 16.8262 25.563
H 16.6811 17.4582 25.0077
H 16.9 16.1968 25.8157
Ow 5.46094 29.7927 21.8878
H 5.03959 29.1658 22.4756
H 5.48672 30.6094 22.3865
Ow 30.4705 5.44632 2.75
H 29.5697 5.12341 2.76872
H 30.3833 6.39856 2.70735
Ow 28.776 24.1231 29.9789
H 28.2262 24.6356 30.5715
H 29.0124 24.7346 29.2815
Ow 30.0878 24.0227 11.5264
H 30.3073 23.1036 11.6788
H 30.8544 24.5064 11.8337
Ow 23.1955 29.1178 26.3586
H 23.667 28.6441 25.6735
H 23.2159 30.032 26.0757
Ow 1.50817 14.6161 18.8833
H 1.56781 13.7443 18.4926
H 2.15547 14.608 19.5883
Ow 7.72929 20.4187 16.582
H 8.17639 21.2166 16.8642
H 8.39874 19.9221 16.1115
Ow 2.9637 19.9817 25.8832
H 3.46466 20.6655 25.4386
H 2.05189 20.1685 25.6598
Ow 16.035 24.5886 28.1027
H 15.2067 24.1286 27.968
H 16.3647 24.7533 27.2193
Ow 14.0567 13.7076 24.7163
H 13.8537 14.634 24.5871
H 14.8568 13.7082 25.2417
Ow 16.1556 15.8836 3.64671
H 16.3151 15.8796 4.59051
H 16.4624 16.7422 3.35528
Ow 10.6893 12.1748 0.666195
H 9.85132 12.634 0.610446
H 11.2895 12.8161 1.04639
Ow 28.8511 28.1562 20.3261
H 29.3238 28.9749 20.4763
H 29.4197 27.4798 20.6941
Ow 18.4475 9.07789 5.14671
H 18.3569 9.9527 4.76897
H 17.8923 9.09437 5.92621
Ow 21.8209 11.0746 17.8129
H 22.065 11.5707 17.0315
H 22.6534 10.8806 18.2438
Ow 16.3139 10.5878 22.5532
H 16.7022 11.195 23.1832
H 15.4242 10.9153 22.4214
Ow 2.2269 13.7597 23.3443
H 2.78817 14.2189 22.7194
H 1.97634 14.4302 23.9801
Ow 15.2789 1.93585 8.28187
H 15.6044 1.59839 9.11646
H 15.5301 1.27128 7.64001
Ow 3.21675 10.157 25.9916
H 3.27846 10.8738 25.3602
H 2.38787 9.72545 25.7844
Ow 17.4441 18.5735 23.9249
H 17.8393 18.2283 23.1246
H 18.1889 18.8001 24.4819
Ow 31.3354 24.2086 3.77736
H 31.2828 23.2539 3.73798
H 30.5517 24.473 4.25903
Ow 30.7184 6.73581 11.0233
H 30.5105 6.8218 10.0929
H 29.8905 6.4828 11.4317
Ow 3.10826 30.6222 29.0097
H 4.05305 30.4748 29.0512
H 2.83127 30.1789 28.2079
Ow 18.1644 2.6535 6.06632
H 18.6025 2.23657 5.3244
H 18.4479 2.14743 6.82771
Ow 20.5871 2.79908 27.9298
H 20.9688 2.63168 27.0681
H 19.7675 3.25734 27.7443
Ow 21.9183 0.765579 10.443
H 21.4993 31.3073 10.282
H 21.6507 1.31075 9.70313
Ow 29.0956 12.1778 25.662
H 29.5857 12.9945 25.5672
H 28.4922 12.1725 24.9189
Ow 27.4911 4.96868 8.97359
H 27.6433 5.11469 9.90726
H 26.5403 4.89131 8.89471
Ow 23.5387 24.4996 1.12587
H 22.9086 23.9017 1.52806
H 24.2573 24.5505 1.75618
Ow 27.2597 28.1565 30.8134
H 27.2883 28.2571 29.862
H 28.1733 28.2269 31.0898
Ow 0.565631 16.2685 2.68616
H 0.99541 15.4168 2.76147
H 31.3161 16.2802 3.40052
Ow 1.97413 8.41559 9.14784
H 1.14173 8.88548 9.09927
H 2.63642 9.08045 8.95897
Ow 27.6117 19.2578 8.13998
H 27.259 20.0774 8.48653
H 27.2316 19.184 7.26457
Ow 24.1905 17.4746 6.37941
H 23.9512 16.6178 6.73257
H 24.8441 17.2829 5.70694
Ow 27.0927 19.2727 5.48803
H 27.4318 18.6408 4.85396
H 26.2464 19.5411 5.1303
Ow 10.7053 27.467 9.62451
H 11.4344 26.8789 9.82137
H 9.93089 27.0047 9.9452
Ow 12.6772 26.6865 21.3902
H 11.8633 27.0123 21.006
H 13.2918 26.6527 20.6572
Ow 1.57322 22.1744 12.8903
H 1.37744 21.8181 13.7569
H 2.27643 21.6181 12.5554
Ow 4.74091 29.8453 19.0231
H 4.72047 30.3021 19.864
H 5.66327 29.8543 18.7674
Ow 16.7668 6.95258 20.2431
H 17.0457 7.7422 20.7067
H 15.8745 7.14564 19.9556
Ow 8.69438 29.7572 28.305
H 8.23133 30.1673 27.5745
H 9.14207 30.4815 28.7422
Ow 0.349071 2.38501 25.1638
H 0.893526 2.60749 25.919
H 30.8467 2.33927 25.5145
Ow 23.0814 17.9886 2.53224
H 22.2439 17.5655 2.34286
H 23.7278 17.287 2.4548
Ow 24.8444 24.8672 29.8432
H 25.6625 25.0484 30.3058
H 24.2128 24.679 30.5373
Ow 6.83942 30.9629 11.2074
H 6.39939 31.1347 12.0398
H 7.70532 30.6395 11.4561
Ow 17.5699 18.5194 29.9169
H 16.8648 18.5567 29.2707
H 17.7956 17.5908 29.9724
Ow 8.21265 15.5531 30.4994
H 8.58937 15.304 29.6555
H 8.52948 16.4437 30.6505
Ow 3.01593 4.26812 9.55344
H 3.31329 3.36196 9.63484
H 3.69236 4.69646 9.02887
Ow 3.98327 22.462 1.98182
H 3.98443 23.3916 2.20982
H 4.90944 22.2238 1.94083
Ow 19.214 24.3307 2.35918
H 18.4011 24.0197 2.75746
H 19.5707 23.5638 1.91094
Ow 13.7038 28.8643 23.2584
H 13.3791 28.2284 22.6209
H 12.916 29.2932 23.5923
Ow 6.55486 23.5168 27.8819
H 7.42379 23.6389 27.4995
H 6.56802 22.6241 28.2272
Ow 27.833 7.66384 1.48758
H 28.6154 8.0183 1.90999
H 27.9158 6.71536 1.58636
Ow 21.9375 9.43656 29.4907
H 22.7264 8.89456 29.4849
H 21.3428 9.00118 28.88
Ow 29.7135 13.2343 10.3276
H 29.7829 13.2055 9.37335
H 30.3846 12.625 10.6355
Ow 28.6704 31.4686 30.3915
H 27.795 0.437267 30.2404
H 28.7363 30.7286 29.7883
Ow 5.97191 22.0889 19.655
H 6.25201 21.2271 19.3466
H 5.42868 21.9047 20.4213
Ow 3.70751 16.4453 28.5871
H 3.99079 17.3537 28.691
H 4.1967 15.9636 29.2541
Ow 9.2599 4.4959 8.63534
H 8.92598 4.01746 7.87618
H 9.96362 3.944 8.97633
Ow 31.0492 1.83103 29.5569
H 30.5811 2.26626 28.8444
H 30.996 0.899121 29.345
Ow 14.285 13.3083 12.2223
H 13.5023 13.2819 12.7727
H 15.0105 13.1644 12.8297
Ow 7.74574 5.923 25.614
H 7.2445 5.11155 25.5334
H 8.28723 5.94989 24.8251
Ow 10.6564 19.2347 23.7713
H 11.5848 19.1064 23.9659
H 10.6491 19.7863 22.9892
Ow 8.33183 26.1864 25.9708
H 8.76208 25.7197 26.6872
H 9.02896 26.7052 25.5695
Ow 10.9598 7.27613 19.2104
H 11.423 6.57077 19.6621
H 10.0334 7.05561 19.3076
Ow 22.4316 13.0849 23.6699
H 22.7417 13.4 22.8209
H 21.8821 13.7943 24.0031
Ow 14.9463 5.52149 30.7988
H 14.4202 4.8459 31.2266
H 15.7323 5.0622 30.503
Ow 2.44303 29.0287 14.3606
H 2.59243 29.2617 15.2769
H 1.85522 29.7092 14.0327
Ow 3.88747 14.8584 5.25428
H 4.4053 15.6633 5.23862
H 4.14728 14.3903 4.46077
Ow 15.02 18.5688 28.7466
H 14.7592 18.5155 29.666
H 14.7926 17.7132 28.3826
Ow 1.77951 2.64982 27.3917
H 2.45773 2.00861 27.1794
H 2.10998 3.4751 27.0369
Ow 4.44966 25.2587 2.38738
H 3.84505 25.7398 2.95235
H 4.19159 25.5013 1.49812
Ow 10.6601 8.16103 25.9606
H 9.91813 8.54019 26.4318
H 11.2887 7.93398 26.646
Ow 18.2205 31.0099 13.3759
H 18.2767 30.9064 14.3258
H 17.3606 30.6575 13.1466
Ow 6.07527 4.09028 24.157
H 6.06962 3.2955 24.6904
H 5.15015 4.30064 24.03
Ow 9.74963 1.32778 16.2244
H 9.85603 2.05847 16.8334
H 10.6229 0.941398 16.1582
Ow 4.26134 20.9389 21.4257
H 4.83583 20.3369 21.8987
H 3.63889 20.3703 20.9724
Ow 22.3555 22.4709 2.50444
H 21.544 22.1234 2.13425
H 23.0501 22.0441 2.00295
Ow 2.35375 23.562 19.5552
H 1.45323 23.3852 19.2832
H 2.27 24.2098 20.2552
Ow 25.9166 11.7679 14.6695
H 25.8435 10.8531 14.3973
H 25.0111 12.0635 14.7636
Ow 29.7277 4.12159 14.8482
H 29.5036 3.74071 15.6972
H 28.8885 4.21275 14.397
Ow 16.0048 15.3601 9.11357
H 15.6644 15.0157 8.28776
H 16.7382 14.7843 9.32968
Ow 10.2171 20.9163 5.87177
H 10.5045 21.523 6.55415
H 10.3434 20.0479 6.25394
Ow 16.9034 9.17938 30.8667
H 16.9653 9.76821 30.1146
H 17.5009 8.46104 30.6589
Ow 19.7184 7.7279 28.1507
H 19.0742 8.22338 27.6455
H 20.2915 7.33695 27.4912
Ow 1.50945 13.6414 2.84941
H 1.39993 13.57 1.9012
H 2.4573 13.6345 2.98263
Ow 2.44766 18.5528 2.88855
H 2.31339 17.6602 3.20707
H 3.21055 18.4903 2.31386
Ow 26.6971 11.2213 4.11159
H 27.1392 10.4415 4.44725
H 27.354 11.6534 3.56587
Ow 5.26325 10.7463 3.75583
H 4.60141 10.0555 3.78744
H 6.0462 10.3131 3.41589
Ow 25.8556 26.669 8.07554
H 24.9509 26.7994 8.35984
H 26.1466 25.8906 8.55058
Ow 4.12318 13.2167 0.352662
H 4.35126 12.4841 31.1675
H 3.16883 13.2713 0.303354
Ow 16.5863 9.26248 7.19304
H 16.227 10.0744 7.55081
H 17.2349 8.98207 7.83864
Ow 13.2713 12.5539 30.465
H 12.661 12.6558 29.7346
H 13.6998 13.4065 30.5403
Ow 19.6169 2.67503 17.1738
H 19.0603 3.4215 16.9517
H 19.035 1.91701 17.1185
Ow 28.8923 2.01998 12.1434
H 28.0451 1.58439 12.2364
H 28.6816 2.95353 12.1264
Ow 30.906 16.4202 6.67418
H 30.2413 16.1101 6.05909
H 30.6807 17.3376 6.82858
Ow 27.1487 14.4065 14.1204
H 28.0234 14.2277 13.7753
H 26.7371 13.5451 14.1891
Ow 19.8006 18.7998 4.47682
H 18.9623 18.8394 4.93708
H 20.2664 18.072 4.88862
Ow 1.29876 13.9738 6.31257
H 0.939517 14.7666 6.71081
H 0.631482 13.3047 6.46543
Ow 2.93895 12.0028 27.8929
H 2.99375 11.2318 27.3284
H 2.24919 12.5385 27.5012
Ow 15.7499 28.4714 20.1293
H 16.4305 27.9468 20.5506
H 16.2297 29.0853 19.5732
Ow 9.38014 15.0262 3.5248
H 8.71725 14.3613 3.71111
H 9.96681 14.6098 2.8934
Ow 2.25966 4.74095 12.1759
H 2.22764 4.68317 11.221
H 2.77395 5.52889 12.3515
Ow 24.6953 10.9872 6.34446
H 23.7895 11.2871 6.42042
H 24.6228 10.062 6.10978
Ow 13.3722 19.711 15.4466
H 13.5074 20.3582 16.1388
H 12.4222 19.6732 15.3357
Ow 8.66938 24.6283 15.1352
H 8.84591 24.0198 15.8525
H 7.94334 24.2296 14.6556
Ow 3.15295 8.50885 13.9674
H 3.76373 9.2209 14.1575
H 2.88138 8.18946 14.8279
Ow 17.7769 25.9348 10.8553
H 17.9474 25.018 11.0715
H 18.5742 26.23 10.4155
Ow 28.8053 9.88581 7.52842
H 28.1326 9.38711 7.99218
H 29.5855 9.80487 8.07724
Ow 12.2622 7.94553 5.27182
H 12.8739 8.11592 5.98783
H 12.3822 7.01766 5.06965
Ow 28.2725 14.7602 7.02524
H 28.0461 15.2031 6.20741
H 28.4275 15.4706 7.64784
Ow 6.3309 9.9543 25.6192
H 5.58133 10.5456 25.5516
H 6.97053 10.3057 24.9997
Ow 20.967 12.926 0.443698
H 20.5504 12.7194 30.9942
H 21.1891 13.8548 0.378319
Ow 13.6698 21.3096 31.36
H 13.2107 21.5631 0.773666
H 14.0696 20.4656 0.182411
Ow 14.2291 26.7152 5.72454
H 13.6909 27.5002 5.62279
H 14.2099 26.2978 4.86335
Ow 25.4388 30.206 8.87566
H 25.8022 29.4838 9.38808
H 25.1314 30.8336 9.52982
Ow 20.0885 6.52531 21.58
H 19.9098 5.73765 22.0936
H 19.8343 7.24848 22.1532
Ow 29.4231 28.4358 14.2618
H 29.5016 29.0774 13.5558
H 29.963 27.6985 13.9772
Ow 15.6061 10.2557 4.42578
H 16.0718 10.6849 5.14326
H 14.8281 10.7959 4.28745
Ow 14.0528 9.77526 27.1259
H 14.5791 9.16774 26.6061
H 13.3408 10.0363 26.5418
Ow 5.7268 24.7078 10.8818
H 6.45754 25.3115 10.7481
H 5.744 24.1364 10.114
Ow 29.7017 6.55666 8.45208
H 28.9894 7.17087 8.62994
H 29.2615 5.73319 8.24151
Ow 14.5613 26.1985 19.226
H 14.8646 27.1021 19.3145
H 15.2306 25.772 18.6909
Ow 21.7208 26.4369 25.192
H 22.1567 26.6157 24.3588
H 22.3959 26.027 25.7329
Ow 5.6685 23.2518 5.45169
H 6.04915 23.1735 4.57693
H 6.4171 23.1931 6.04529
Ow 0.580944 30.8014 5.47477
H 0.355929 0.225567 5.92976
H 31.2157 30.6274 4.90904
Ow 11.0719 20.6163 21.3044
H 11.889 20.1766 21.0694
H 10.532 20.5567 20.5163
Ow 17.2447 15.8067 16.3325
H 17.9932 15.6979 16.919
H 17.2967 16.7177 16.0435
Ow 18.6804 5.34116 15.9201
H 19.5624 5.67704 15.7611
H 18.3107 5.93634 16.5723
Ow 26.254 31.2173 26.7985
H 26.0794 31.0102 25.8804
H 26.8688 0.563246 26.7667
Ow 12.1549 15.4083 26.2094
H 11.6042 15.9646 26.7606
H 13.0324 15.4951 26.5818
Ow 3.01708 21.0338 4.05261
H 3.48008 21.4163 3.3073
H 2.96266 20.1003 3.8479
Ow 17.1481 8.26562 11.8213
H 17.0638 8.60386 10.9299
H 18.0101 7.84966 11.8396
Ow 25.5737 9.69667 24.6687
H 26.33 9.12009 24.777
H 25.405 9.69694 23.7265
Ow 22.2853 29.1265 20.7744
H 22.3868 28.6604 21.6042
H 22.4707 30.0408 20.9886
Ow 28.9009 10.9095 14.1277
H 28.2202 11.4704 14.4995
H 29.6309 11.5028 13.9513
Ow 13.6706 27.4178 0.619194
H 13.4717 26.818 1.33815
H 14.4616 27.0577 0.218063
Ow 9.46466 2.21955 25.9197
H 9.67655 2.99289 26.4425
H 8.5213 2.10409 26.0335
Ow 30.8104 17.5216 26.5822
H 31.528 17.5454 27.2152
H 30.0758 17.934 27.0365
Ow 14.4487 26.9908 25.3132
H 14.3546 27.6969 24.6736
H 14.5663 26.2019 24.7841
Ow 23.8469 0.98088 27.4192
H 23.2104 0.961458 26.7045
H 24.6226 0.549083 27.0615
Ow 8.20315 3.11542 6.4943
H 8.86123 3.24303 5.81104
H 7.39693 3.47094 6.12039
Ow 30.0376 16.188 29.6775
H 30.7901 15.6729 29.3862
H 30.1919 16.3304 30.6114
Ow 11.6106 9.3247 9.70595
H 10.8347 8.77711 9.82533
H 11.3648 9.94248 9.0174
Ow 22.1554 24.3953 17.1503
H 21.3316 23.9079 17.1474
H 22.2588 24.6863 18.0563
Ow 17.7788 15.5369 29.2345
H 17.8043 14.8304 29.8799
H 18.2612 15.1927 28.4829
Ow 29.5235 21.7821 21.4824
H 30.4499 21.6862 21.2615
H 29.4368 21.3654 22.3397
Ow 28.3737 3.02288 30.1741
H 28.2924 2.97468 29.2216
H 27.5038 3.28403 30.4762
Ow 19.8602 19.2105 17.3125
H 20.6717 18.7925 17.0245
H 19.9987 20.143 17.1469
Ow 30.2753 13.0268 7.30328
H 29.5687 13.67 7.24675
H 30.0825 12.3968 6.60888
Ow 4.45442 30.5616 5.6978
H 5.3206 30.2395 5.44804
H 3.98992 29.7847 6.00865
Ow 0.357379 15.4149 12.8744
H 31.5251 16.2553 12.4721
H 0.229013 15.557 13.8122
Ow 8.18162 23.2222 0.621824
H 7.56925 23.5612 31.3558
H 8.73408 22.609 31.5245
Ow 19.5514 18.4784 26.1315
H 20.4026 18.4143 25.6983
H 19.2387 17.5751 26.181
Ow 25.5367 10.4767 9.30978
H 25.6411 10.857 8.43763
H 25.566 9.53103 9.16433
Ow 17.6263 20.0091 13.2849
H 18.4089 19.9154 12.7419
H 17.8396 20.7168 13.8932
Ow 22.025 22.7699 30.1978
H 21.968 23.5206 30.7889
H 22.0641 22.0098 30.7782
Ow 22.4283 15.929 12.1157
H 21.8299 16.4799 12.6204
H 22.4737 15.1097 12.6084
Ow 11.8594 14.2035 2.01512
H 11.9863 15.101 1.70754
H 12.7056 13.9557 2.38767
Ow 13.4045 29.7968 9.91226
H 13.5465 29.0583 9.32008
H 13.5064 29.425 10.7884
Ow 15.0035 0.892635 19.9926
H 15.6474 0.682185 19.3165
H 14.6826 1.76282 19.7559
Ow 9.31983 24.5089 27.9243
H 9.8331 23.762 27.6165
H 9.56791 24.6081 28.8435
Ow 14.1136 8.08807 7.31518
H 14.8067 8.68443 7.03197
H 14.2965 7.27027 6.85212
Ow 28.285 25.7281 9.76437
H 28.0036 24.8587 9.47955
H 28.6274 25.592 10.6478
Ow 10.9932 24.3293 30.3451
H 11.896 24.0825 30.1447
H 10.9229 24.2319 31.2947
Ow 4.74382 13.406 3.01546
H 4.76262 12.5141 3.36233
H 4.54127 13.2979 2.08622
Ow 30.7226 21.1273 11.7602
H 31.4945 21.5469 12.1401
H 30.2914 20.702 12.5014
Ow 8.28992 23.4868 19.6926
H 8.7522 23.1364 20.454
H 7.49642 22.9554 19.6281
Ow 3.76865 0.804512 13.2865
H 3.29266 1.5957 13.5388
H 4.0427 0.966847 12.3839
Ow 3.98511 14.5275 26.7743
H 3.76453 13.6926 27.1874
H 4.04368 15.147 27.5016
Ow 1.51355 6.01107 7.69387
H 1.38754 6.77076 8.262
H 1.99824 6.35143 6.94194
Ow 25.0933 27.3821 3.50224
H 24.4088 27.2238 4.15229
H 24.6221 27.4669 2.67337
Ow 30.8139 30.7187 28.3676
H 29.909 30.8874 28.1051
H 31.2821 30.5863 27.5433
Ow 6.96013 11.0836 30.0795
H 7.2641 11.3003 29.1981
H 7.35125 10.2299 30.2651
Ow 31.0035 12.9961 22.7002
H 30.6014 13.2754 21.8777
H 0.534316 13.2548 22.6187
Ow 24.2757 7.84894 10.7948
H 23.7788 7.25968 10.2272
H 25.0956 7.38489 10.9635
Ow 11.8861 6.33949 8.36277
H 12.3892 6.97149 7.84945
H 12.5317 5.92967 8.93848
Ow 0.541039 23.5123 26.541
H 31.0234 23.7554 26.7378
H 0.524885 23.2519 25.6201
Ow 8.29617 31.1202 1.17463
H 8.5471 30.7601 2.0253
H 8.54141 0.656856 1.22276
Ow 6.27812 19.1796 23.138
H 6.9214 18.499 22.9403
H 6.081 19.0611 24.0674
Ow 26.9898 28.4169 10.677
H 27.1797 27.5047 10.4577
H 27.7951 28.739 11.0818
Ow 19.8628 11.34 9.91992
H 20.7225 11.0157 9.65148
H 19.4968 11.7337 9.12795
Ow 29.9227 29.5472 23.9639
H 29.6367 28.9261 24.6336
H 29.2682 30.2452 23.9889
Ow 30.1865 17.4851 22.4215
H 31.0041 17.9765 22.3422
H 29.7869 17.5424 21.5537
Ow 26.5096 4.49167 5.82406
H 26.0541 4.45761 6.66524
H 25.9057 4.07805 5.20724
Ow 7.82638 15.2696 17.1109
H 8.33173 14.4596 17.18
H 8.45134 15.915 16.7809
Ow 0.409275 30.9299 25.6018
H 31.222 30.5233 24.9534
H 0.306124 0.483311 25.4573
Ow 9.95852 9.22263 4.91239
H 10.4242 10.0094 4.62895
H 10.6062 8.52152 4.84082
Ow 4.06749 19.1617 28.636
H 4.19618 19.1515 27.6875
H 3.13496 18.9808 28.7536
Ow 20.0795 12.9998 20.1396
H 19.8719 12.704 19.2533
H 20.9005 13.4829 20.0453
Ow 23.7288 0.79106 7.97246
H 23.6924 31.2374 8.14411
H 24.6292 1.03838 8.18289
Ow 16.2699 4.67677 21.5024
H 16.5253 5.5575 21.2281
H 17.0713 4.15923 21.4244
Ow 18.7345 5.41444 6.60198
H 18.595 4.4855 6.41816
H 19.3061 5.42393 7.36974
Ow 6.53231 2.10943 9.09864
H 6.4744 2.95534 9.5428
H 7.07166 2.2802 8.32654
Ow 28.4239 24.9898 16.5608
H 28.2149 24.7314 17.4585
H 28.0394 24.3019 16.0175
Ow 3.14749 20.42 11.5625
H 2.60787 19.6625 11.3365
H 3.36301 20.8209 10.7205
Ow 21.2221 10.658 21.119
H 22.0994 10.6236 20.7377
H 20.9523 11.5708 21.0183
Ow 21.8448 11.6318 5.30626
H 21.8579 11.5871 4.35021
H 21.4606 10.799 5.58021
Ow 8.57696 27.2322 1.55667
H 9.40707 27.6968 1.45034
H 8.2901 27.0457 0.66274
Ow 13.5176 7.9231 22.058
H 13.3455 8.05361 21.1256
H 12.8662 8.46687 22.5009
Ow 25.8999 29.4581 1.54722
H 26.1504 28.9907 0.750377
H 26.2324 28.9126 2.26001
Ow 20.6255 4.33354 2.63344
H 21.3638 4.58077 3.19014
H 20.404 3.44424 2.90958
Ow 2.03057 2.97891 14.2775
H 1.14928 2.60656 14.2485
H 2.0577 3.58894 13.5404
Ow 6.96215 12.3457 21.1897
H 6.20248 11.7771 21.0636
H 7.45615 12.2707 20.3733
Ow 21.6181 23.3724 24.7871
H 20.7227 23.1496 24.5323
H 21.8297 24.1479 24.2672
Ow 23.9719 21.891 11.9007
H 23.4707 22.3676 11.239
H 23.5349 21.042 11.9672
Ow 26.8164 27.1396 21.9088
H 27.2877 26.5462 22.4936
H 27.4665 27.3997 21.256
Ow 21.5316 19.9876 14.5514
H 21.4408 20.4159 13.7002
H 20.8233 20.3537 15.081
Ow 8.81054 4.10946 13.5707
H 7.96375 3.94394 13.9852
H 8.65135 4.85164 12.9876
Ow 4.09604 10.9412 30.4404
H 5.04804 10.88 30.362
H 3.79146 11.1009 29.5472
Ow 12.5554 29.1019 14.9733
H 11.7114 28.6674 14.8508
H 12.3343 30.0246 15.0997
Ow 2.82844 4.39477 19.9132
H 3.22296 5.26103 20.0139
H 2.18232 4.34197 20.6175
Ow 18.9928 0.821285 7.67395
H 18.4355 31.486 7.96281
H 19.2807 1.24105 8.48431
Ow 5.78684 15.0753 11.5541
H 5.87556 14.5027 10.7921
H 6.45752 15.7467 11.4292
Ow 23.243 30.1439 2.24809
H 22.7448 29.6485 1.59804
H 24.1591 29.97 2.03201
Ow 8.02497 19.8091 1.97471
H 7.41836 20.2015 1.34683
H 7.83122 18.8723 1.9423
Ow 4.78387 22.1343 25.3016
H 4.94561 22.8878 25.8693
H 5.65095 21.8831 24.9834
Ow 10.8055 19.3828 10.9904
H 11.5245 20.0091 10.9077
H 10.9295 18.9874 11.8532
Ow 14.4105 22.6302 8.42952
H 14.0401 23.5092 8.50828
H 13.7387 22.0532 8.79303
Ow 24.3814 20.1357 29.021
H 24.6405 19.2496 28.7685
H 23.5105 20.2488 28.6405
Ow 7.00166 8.3182 8.39175
H 7.4409 9.16861 8.38436
H 6.37895 8.36317 7.66592
Ow 18.5919 30.5363 20.7114
H 19.0211 29.689 20.5927
H 18.3846 30.8268 19.8232
Ow 10.7744 22.922 7.52125
H 9.90013 23.2835 7.37598
H 11.3708 23.6137 7.23461
Ow 5.66032 7.2149 22.5455
H 5.58958 7.02193 23.4804
H 5.50638 8.15739 22.4829
Ow 31.3999 28.04 29.3944
H 31.1161 28.9311 29.1906
H 30.9357 27.4901 28.7634
Ow 25.5118 19.6792 19.0346
H 26.2566 20.2432 19.2429
H 24.7489 20.1621 19.3522
Ow 30.0526 18.9294 4.07912
H 30.2518 18.8105 5.00777
H 29.4904 18.1873 3.85726
Ow 24.7176 7.92244 29.1401
H 24.4947 7.25247 28.4938
H 24.9326 8.69611 28.6195
Ow 13.6406 17.3773 3.80987
H 14.426 16.8303 3.79616
H 13.2744 17.2936 2.92947
Ow 30.7369 22.5437 6.67489
H 30.9993 22.1687 5.83412
H 31.4788 22.3741 7.25526
Ow 9.23818 7.21431 9.5639
H 8.48292 7.51709 9.05981
H 8.86315 6.86863 10.3738
Ow 20.6996 28.997 17.1449
H 19.8644 29.4537 17.0451
H 21.0713 28.981 16.263
Ow 28.1041 23.0137 14.6837
H 28.1303 22.8447 13.7419
H 27.7265 22.2187 15.0597
Ow 23.643 14.759 7.283
H 24.0209 14.5441 6.43026
H 22.7027 14.6196 7.17078
Ow 4.7166 5.66054 8.0153
H 5.44658 5.91252 8.58084
H 5.13013 5.38933 7.19565
Ow 23.7738 2.85117 31.2768
H 23.4953 2.6811 0.789544
H 24.727 2.92019 31.3297
Ow 6.36979 11.7893 5.8885
H 6.78045 12.2248 5.14156
H 6.05129 10.9582 5.53635
Ow 21.4046 10.5628 23.8944
H 21.1609 10.3253 22.9998
H 21.7043 11.4695 23.8288
Ow 18.8041 5.78105 25.199
H 18.5616 6.65602 24.8959
H 19.66 5.89845 25.6111
Ow 22.7782 7.01478 21.7218
H 21.8437 6.97202 21.5191
H 22.9553 6.20979 22.2084
Ow 15.0461 14.8984 19.9523
H 15.8865 14.602 20.3017
H 14.4113 14.2625 20.2822
Ow 6.07931 23.1497 8.55979
H 6.79429 22.5234 8.67291
H 5.28464 22.6339 8.69649
Ow 11.5924 24.8147 11.3159
H 10.7143 24.4524 11.1986
H 11.5453 25.2952 12.1424
Ow 10.9605 14.4226 18.7442
H 10.4307 13.6262 18.708
H 11.6505 14.2234 19.377
Ow 17.2591 18.8297 16.197
H 18.0972 18.7642 16.6546
H 17.4679 19.2761 15.3765
Ow 13.6893 5.50702 10.3883
H 14.6128 5.30444 10.2393
H 13.4735 5.05676 11.205
Ow 29.9246 27.9522 0.517671
H 30.5552 27.9833 31.1851
H 29.9871 27.0581 0.853253
Ow 27.7154 21.3904 19.2522
H 28.1581 20.7981 18.6444
H 28.163 21.2557 20.0875
Ow 23.7612 24.6981 22.7896
H 24.5254 24.6107 23.3592
H 24.0577 24.3747 21.9389
Ow 26.0155 21.3828 16.0817
H 25.7847 22.0069 16.7698
H 25.4919 20.6057 16.2772
Ow 16.2919 7.64033 3.90032
H 15.971 8.53817 3.98239
H 15.9881 7.35493 3.03868
Ow 30.9039 11.9474 4.76328
H 0.275322 12.4074 4.40356
H 30.1785 12.1968 4.19084
Ow 12.2837 28.537 17.9728
H 12.4021 29.3509 18.4623
H 11.3428 28.3661 18.0151
Ow 30.6944 9.63995 16.3703
H 31.2862 8.90243 16.5183
H 30.6741 10.1031 17.2077
Ow 29.1369 9.38711 22.4597
H 28.7973 8.55328 22.1349
H 29.9668 9.50469 21.9974
Ow 11.5391 3.29243 22.3302
H 11.8583 2.74754 23.0496
H 11.4153 2.682 21.6034
Ow 26.5658 13.3319 0.573824
H 26.6447 13.6693 1.46599
H 27.202 13.8384 31.4557
Ow 7.24061 5.2912 21.5298
H 7.23393 5.41007 20.58
H 6.91517 6.12132 21.8779
Ow 28.075 14.3593 29.9807
H 28.8564 14.9058 30.064
H 27.5637 14.7757 29.2867
Ow 20.5084 19.996 23.3716
H 19.7096 20.4852 23.5685
H 20.2645 19.4197 22.6473
Ow 15.3521 20.5365 24.1918
H 16.0128 19.8652 24.0221
H 14.9742 20.7242 23.3327
Ow 21.8425 20.8512 27.5732
H 21.1687 20.3769 28.0602
H 21.881 20.4097 26.7248
Ow 13.0431 21.5741 12.3757
H 12.9442 21.6746 11.429
H 13.5566 20.773 12.4796
Ow 20.5749 28.3727 12.7165
H 19.8534 28.0554 13.2595
H 20.9869 27.5783 12.3767
Ow 12.321 21.3158 9.42037
H 12.3631 20.5062 8.91158
H 11.687 21.86 8.95337
Ow 23.7495 28.7274 30.1798
H 23.7035 29.6835 30.1886
H 24.3557 28.5229 29.4679
Ow 18.1388 11.8757 15.529
H 17.7418 11.4082 14.7941
H 19.0306 12.0664 15.2385
Ow 26.6051 0.546103 2.52606
H 26.3481 31.087 2.15979
H 26.4264 0.466617 3.46305
Ow 1.21052 22.6173 23.9997
H 0.672248 23.2903 23.5828
H 2.11174 22.8964 23.8383
Ow 25.7548 25.2 12.2243
H 26.2919 24.4077 12.2342
H 25.1004 25.0378 11.5449
Ow 0.495326 18.822 0.780216
H 1.19773 18.6057 1.39343
H 31.219 18.1481 0.927596
Ow 11.2164 9.96439 20.3025
H 10.5865 10.619 20.0011
H 11.0584 9.20388 19.7431
Ow 18.834 15.7111 10.0105
H 18.9981 14.9831 10.6098
H 18.8368 16.4878 10.5698
Ow 12.1939 24.9767 6.25263
H 11.7482 25.7532 6.59116
H 13.0439 25.2993 5.95334
Ow 20.3716 24.9918 20.9808
H 20.2608 24.0482 20.8647
H 19.6728 25.3818 20.4558
Ow 0.320102 10.5758 1.92059
H 31.3168 10.8273 1.0834
H 31.0591 10.8353 2.57514
Ow 13.6778 10.7973 18.9492
H 13.4764 11.5695 18.4206
H 12.9045 10.6751 19.4999
Ow 1.20577 10.2366 6.30326
H 0.741556 10.4167 5.48573
H 1.28779 9.28328 6.32774
Ow 10.9353 22.6224 26.5537
H 10.6655 21.8665 26.0322
H 10.9732 23.345 25.9272
Ow 29.5839 17.8568 15.9453
H 29.262 17.0546 16.3567
H 30.4298 17.6113 15.5699
Ow 3.6433 5.43747 26.2346
H 4.13991 6.19691 25.9299
H 4.25358 4.96207 26.7983
Ow 30.6886 24.2033 22.7914
H 30.7865 24.9424 22.1911
H 30.0612 23.6245 22.359
Ow 11.8252 31.4822 6.10401
H 10.8967 31.2497 6.10704
H 11.8858 0.848208 6.69145
Ow 11.7952 22.8142 18.7781
H 11.8545 23.6513 18.3177
H 12.1075 23.0042 19.6627
Ow 1.60305 6.47336 27.81
H 2.16155 5.83617 27.3647
H 2.21527 7.09042 28.2107
Ow 23.3005 19.7137 16.5062
H 22.7875 20.0669 15.7795
H 23.0805 18.7823 16.525
Ow 21.8703 25.8178 12.2485
H 22.3394 25.3346 11.5683
H 21.327 25.1584 12.68
Ow 23.3117 7.83767 17.3003
H 23.7782 8.67345 17.3037
H 23.6873 7.35038 18.0336
Ow 18.8177 8.20803 23.6564
H 17.9547 8.13048 23.2498
H 18.8924 9.13404 23.8865
Ow 16.6029 26.1547 8.41114
H 15.8324 26.7148 8.50546
H 17.0207 26.1741 9.27212
Ow 16.3011 1.58497 26.9203
H 16.9774 2.25986 26.979
H 16.0479 1.5788 25.9972
Ow 6.06888 30.5366 31.0391
H 6.7952 30.6532 0.264303
H 6.27152 31.1252 30.3119
Ow 27.8391 5.06325 2.73318
H 27.0802 4.50517 2.56315
H 27.5034 5.75917 3.29816
Ow 20.5981 28.4002 27.2146
H 20.1201 29.195 26.9782
H 21.4775 28.535 26.8614
Ow 5.7379 27.8481 27.2807
H 5.03954 27.4858 26.7355
H 6.46822 27.2391 27.1712
Ow 27.9683 29.6668 28.2048
H 28.2997 29.0302 27.5715
H 27.4359 30.2683 27.6842
Ow 30.8179 30.3762 21.5378
H 0.368346 30.2598 21.3847
H 30.6512 29.9211 22.3631
Ow 23.1829 9.30932 26.5304
H 22.4218 9.82278 26.8013
H 22.848 8.72366 25.8514
Ow 1.01641 11.1745 30.1051
H 0.508878 11.0987 29.297
H 1.65646 10.4648 30.0541
Ow 2.12222 7.44768 23.2416
H 1.70388 7.02549 22.4913
H 2.77923 8.02639 22.8556
Ow 27.2884 24.088 18.9382
H 26.3715 24.1677 18.6753
H 27.4302 23.1463 19.0328
Ow 27.5472 7.88845 24.8111
H 28.3306 8.43766 24.8415
H 27.5218 7.45947 25.6664
Ow 25.7098 29.6314 21.3389
H 26.2565 28.9271 21.687
H 26.3237 30.2117 20.8888
Ow 6.55163 24.2348 13.3152
H 6.43999 24.0034 12.3932
H 5.66222 24.2472 13.6689
Ow 11.5072 25.4011 17.9784
H 11.4627 25.8739 17.1473
H 12.3324 25.6847 18.372
Ow 15.9021 4.73371 7.60476
H 16.8395 4.92306 7.64433
H 15.8147 3.86899 8.00611
Ow 9.18718 22.4906 17.1558
H 9.09619 22.8292 18.0465
H 10.1312 22.392 17.0319
Ow 12.8937 4.54156 16.2486
H 12.9753 5.44581 16.5517
H 11.9505 4.39992 16.1672
Ow 2.52361 1.85978 18.3387
H 3.02801 1.46747 17.6261
H 2.78633 2.78016 18.3404
Ow 27.4934 7.95533 9.29644
H 26.7699 7.568 8.80379
H 27.4016 7.59696 10.1792
Ow 12.7327 9.2638 2.6056
H 13.0511 8.97626 3.46125
H 13.4578 9.76808 2.23675
Ow 31.3611 25.9493 1.61929
H 31.2679 25.2252 2.23809
H 0.461245 25.5763 0.884474
Ow 10.0731 2.17281 0.95767
H 9.84602 3.04332 1.28457
H 10.8102 1.89666 1.50232
Ow 11.9534 20.0326 27.7114
H 12.3772 20.8762 27.5533
H 11.038 20.2526 27.8841
Ow 6.81542 2.36248 21.9056
H 6.30864 1.85132 22.5365
H 6.15642 2.80269 21.3688
Ow 4.81827 18.0002 1.28149
H 5.49293 17.7581 1.91578
H 4.79709 17.2698 0.663187
Ow 4.8495 10.2886 14.8652
H 5.68588 10.0261 14.4808
H 4.98304 10.2065 15.8094
Ow 4.03275 17.6717 8.54459
H 4.22589 16.8651 8.06681
H 4.89073 18.0585 8.71915
Ow 2.9179 28.1248 29.7852
H 3.01869 29.0553 29.5847
H 2.02004 27.9191 29.525
Ow 10.8002 23.1916 4.22096
H 11.1511 23.7013 4.95102
H 10.472 22.3881 4.62473
Ow 24.3325 27.1107 20.256
H 23.8528 27.9383 20.291
H 24.8783 27.1162 21.0423
Ow 17.3512 2.37908 31.502
H 17.4184 2.60286 1.04244
H 16.4274 2.16419 31.3731
Ow 29.0789 25.2234 5.24715
H 28.4184 24.5572 5.43695
H 29.5244 25.3646 6.08252
Ow 26.703 18.137 14.3759
H 26.0391 17.4678 14.5418
H 26.7782 18.6109 15.2041
Ow 16.8077 24.617 4.24624
H 17.7057 24.7274 4.55849
H 16.3676 24.1355 4.94673
Ow 18.0698 26.8604 28.9145
H 17.728 27.2917 28.1313
H 18.8377 27.3776 29.1575
Ow 28.9041 28.1966 8.06196
H 28.4965 27.5271 8.61139
H 28.8656 27.8365 7.17588
Ow 6.85659 22.9333 2.97236
H 7.23995 22.9776 2.09649
H 7.08359 22.0593 3.28977
Ow 27.0073 19.8954 29.9857
H 27.2976 20.3496 30.7767
H 26.0627 20.0469 29.955
Ow 2.16886 17.8867 10.939
H 2.89052 17.7502 10.3252
H 1.38117 17.8424 10.3969
Ow 25.8546 3.04546 1.89754
H 25.2866 3.08547 2.66691
H 26.2702 2.18482 1.95055
Ow 21.9361 16.8424 22.6429
H 21.582 16.5108 23.468
H 22.7505 16.3551 22.5182
Ow 4.9862 0.987797 23.5876
H 4.94421 1.1359 24.5324
H 4.1132 1.21802 23.2696
Ow 12.8111 26.3995 3.25901
H 12.6049 27.2575 2.88819
H 11.9765 25.9307 3.25786
Ow 7.14487 1.95882 15.7996
H 8.06819 1.71177 15.7482
H 6.70105 1.35333 15.2058
Ow 3.37737 4.5796 16.2721
H 3.04816 3.84361 15.7556
H 2.59034 5.00473 16.6126
Ow 12.9813 17.9613 17.6087
H 13.2572 17.0454 17.5742
H 13.2283 18.3186 16.7557
Ow 6.15137 6.14905 28.9109
H 5.81358 5.2761 28.7108
H 6.86665 5.99401 29.5278
Ow 5.812 20.6375 0.409196
H 5.80763 20.9718 30.8993
H 5.35515 19.7982 0.354742
Ow 8.10449 30.1905 19.0999
H 8.01677 31.113 18.8601
H 8.56244 29.7925 18.3596
Ow 24.4388 28.314 11.5422
H 24.3129 28.1126 12.4695
H 25.3884 28.3072 11.422
Ow 8.09029 6.34641 30.6385
H 9.03977 6.26968 30.5446
H 7.94542 6.39382 0.196316
Ow 14.6362 16.0377 27.6236
H 15.1538 15.2343 27.5714
H 14.9784 16.59 26.9208
Ow 6.16249 15.7713 19.9606
H 6.45433 14.8837 19.7531
H 6.94221 16.3138 19.844
Ow 21.4539 6.54255 26.2293
H 22.2174 6.1322 26.6353
H 21.7961 6.95343 25.4354
Ow 15.8066 8.09292 15.6933
H 15.3411 7.73653 14.9366
H 16.2301 8.88522 15.3633
Ow 14.0398 28.8307 12.5244
H 13.6678 28.9454 13.3988
H 14.4205 27.9527 12.5388
Ow 3.30894 28.0644 6.42023
H 3.1743 27.5146 5.64837
H 4.24784 28.0048 6.59643
Ow 30.4025 19.9439 19.3168
H 29.8718 19.1905 19.5756
H 30.0324 20.2218 18.479
Ow 5.63539 3.43115 31.2619
H 6.34287 3.5094 0.514447
H 6.08063 3.27038 30.4299
Ow 30.9334 1.75227 7.15987
H 30.1534 2.17652 6.80247
H 30.7149 1.5794 8.07541
Ow 21.1287 26.2421 2.9389
H 21.5496 26.1238 2.08736
H 20.3035 25.7624 2.86746
Ow 13.6612 30.8938 27.7763
H 13.6412 30.9685 28.7304
H 14.5431 30.5787 27.5789
Ow 25.6574 10.6148 31.4851
H 24.8655 10.9314 31.0507
H 26.0385 11.395 0.500831
Ow 25.0006 7.21607 19.9642
H 24.1997 7.15547 20.4848
H 25.326 8.10143 20.1263
Ow 2.02025 11.9261 18.2566
H 2.57285 11.3971 18.8318
H 2.40621 11.8183 17.3873
Ow 6.59584 14.6213 22.8401
H 6.49081 15.135 22.0392
H 7.00933 13.8079 22.5511
Ow 26.6055 18.4235 16.9776
H 26.5172 17.4718 17.0302
H 26.1114 18.7522 17.7286
Ow 13.1963 16.4848 8.97944
H 13.3023 15.8531 8.26815
H 12.5349 16.0943 9.55068
Ow 28.2414 12.0251 28.3881
H 28.3634 12.287 27.4755
H 28.0985 12.8475 28.8566
Ow 5.62143 3.1714 19.5798
H 4.70251 3.36479 19.3944
H 6.10719 3.86721 19.137
Ow 28.2769 9.00506 4.70601
H 28.4633 9.11521 5.63839
H 27.7874 8.18414 4.65446
Ow 2.67176 8.1227 30.8873
H 3.20212 8.10041 30.0908
H 3.28752 7.92057 0.204335
Ow 24.111 12.1076 25.9892
H 24.3774 12.5383 25.1769
H 23.1894 12.3435 26.0948
Ow 4.1108 27.5588 23.0924
H 3.9136 26.7482 22.6231
H 3.80729 27.3989 23.9862
Ow 25.9432 31.3374 5.07205
H 26.1005 0.556 5.7961
H 25.0298 31.0705 5.1761
Ow 2.83725 30.8636 3.58016
H 3.39897 30.5901 4.30533
H 1.97843 31.0002 3.98013
Ow 3.43649 14.5013 20.8832
H 3.47785 13.5578 20.7274
H 4.27372 14.8348 20.5606
Ow 18.8721 18.132 11.511
H 17.9878 17.9954 11.8509
H 19.445 17.9699 12.2605
Ow 12.8973 13.2539 20.6874
H 12.1415 13.6423 21.1279
H 13.1107 12.4824 21.2123
Ow 0.51331 5.97644 14.4408
H 0.897245 5.88442 13.5688
H 31.1764 5.35026 14.4513
Ow 3.00076 24.8405 10.0951
H 2.47857 24.7572 10.8929
H 3.8628 25.1227 10.4008