LAMMPS (23 Jun 2022 - Update 1)
Reading data file ...
  orthogonal box = (0 0 0) to (31.689281 31.689281 31.689281)
  2 by 4 by 4 MPI processor grid
  reading atoms ...
  3162 atoms
  scanning bonds ...
  4 = max bonds/atom
  scanning angles ...
  6 = max angles/atom
  reading bonds ...
  2108 bonds
  reading angles ...
  1108 angles
Finding 1-2 1-3 1-4 neighbors ...
  special bond factors lj:    0        0        0       
  special bond factors coul:  0        0        0       
     4 = max # of 1-2 neighbors
     3 = max # of 1-3 neighbors
     3 = max # of 1-4 neighbors
     4 = max # of special neighbors
  special bonds CPU = 8.666 seconds
  read_data CPU = 9.898 seconds
Setting atom values ...
  1000 settings made for charge
Setting atom values ...
  2000 settings made for charge
Setting atom values ...
  36 settings made for charge
Setting atom values ...
  36 settings made for charge
Setting atom values ...
  18 settings made for charge
Setting atom values ...
  72 settings made for charge
1000 atoms in group wat
36 atoms in group Li
18 atoms in group S
  create bodies CPU = 0.002 seconds
  1054 rigid bodies with 3162 atoms
  1.4900082 = max distance from body owner to body atom
PPPM initialization ...
  extracting TIP4P info from pair style
  using 12-bit tables for long-range coulomb (../kspace.cpp:342)
  G vector (1/distance) = 0.31119582
  grid = 30 30 30
  stencil order = 5
  estimated absolute RMS force accuracy = 0.0035544154
  estimated relative force accuracy = 1.0704016e-05
  using double precision KISS FFT
  3d grid and FFT values/proc = 4950 960
Generated 0 of 15 mixed pair_coeff terms from arithmetic mixing rule
Neighbor list info ...
  update every 1 steps, delay 0 steps, check yes
  max neighbors/atom: 2000, page size: 100000
  master list distance cutoff = 12.3092
  ghost atom cutoff = 12.3092
  binsize = 6.1546, bins = 6 6 6
  1 neighbor lists, perpetual/occasional/extra = 1 0 0
  (1) pair lj/cut/tip4p/long, perpetual
      attributes: half, newton on
      pair build: half/bin/newton
      stencil: half/bin/3d
      bin: standard
Setting up Verlet run ...
  Unit style    : real
  Current step  : 0
  Time step     : 0.001
Per MPI rank memory allocation (min/avg/max) = 15.41 | 15.45 | 15.48 Mbytes
   Step        Density          Temp          Press          TotEng    
         0   1.0433267      302.38677     -580486.36      5973.6465    
      1000   1.0426191      323.22166      73199.316      5949.9385    
      2000   1.0404902      379.65114      70741.976      5876.6497    
      3000   1.0369941      466.9223       66582.963      5746.6467    
      4000   1.0322232      576.62192      60685.799      5544.1273    
      5000   1.0263081      701.13203      53583.879      5269.4446    
      6000   1.0194068      834.70353      46626.877      4938.9903    
      7000   1.0116833      967.95411      39561.195      4548.6353    
      8000   1.0033091      1093.3594      32114.963      4104.7882    
      9000   0.99446314     1203.5549      25532.565      3609.9354    
     10000   0.98531273     1294.439       19532.385      3078.6835    
Loop time of 28.9184 on 32 procs for 10000 steps with 3162 atoms

Performance: 0.030 ns/day, 803.288 hours/ns, 345.801 timesteps/s
99.5% CPU use with 32 MPI tasks x no OpenMP threads

MPI task timing breakdown:
Section |  min time  |  avg time  |  max time  |%varavg| %total
---------------------------------------------------------------
Pair    | 9.2667     | 11.355     | 14.546     |  43.5 | 39.26
Bond    | 0.033387   | 0.04049    | 0.050111   |   2.2 |  0.14
Kspace  | 5.1        | 8.4252     | 10.758     |  52.9 | 29.13
Neigh   | 0.0023056  | 0.0024746  | 0.0027409  |   0.3 |  0.01
Comm    | 1.3867     | 1.6614     | 1.9386     |  12.7 |  5.75
Output  | 0.0019029  | 0.002068   | 0.006504   |   1.8 |  0.01
Modify  | 6.6718     | 7.0128     | 7.294      |   6.5 | 24.25
Other   |            | 0.4192     |            |       |  1.45

Nlocal:        98.8125 ave         110 max          82 min
Histogram: 1 0 4 4 4 2 4 3 5 5
Nghost:        4051.34 ave        4082 max        4022 min
Histogram: 5 1 3 2 3 6 3 5 2 2
Neighs:        36302.3 ave       42595 max       29343 min
Histogram: 1 2 5 4 5 2 3 3 4 3

Total # of neighbors = 1161675
Ave neighs/atom = 367.38615
Ave special neighs/atom = 2.0341556
Neighbor list builds = 2
Dangerous builds = 0
PPPM initialization ...
  extracting TIP4P info from pair style
  using 12-bit tables for long-range coulomb (../kspace.cpp:342)
  G vector (1/distance) = 0.30982163
  grid = 30 30 30
  stencil order = 5
  estimated absolute RMS force accuracy = 0.0037621788
  estimated relative force accuracy = 1.132969e-05
  using double precision KISS FFT
  3d grid and FFT values/proc = 4950 960
Generated 0 of 15 mixed pair_coeff terms from arithmetic mixing rule
Setting up Verlet run ...
  Unit style    : real
  Current step  : 10000
  Time step     : 0.01
Per MPI rank memory allocation (min/avg/max) = 15.41 | 15.45 | 15.48 Mbytes
   Step        Density          Temp          Press          TotEng    
     10000   0.98531273     1294.439       6290.5427      3078.6879    
     11000   0.90158458     1212.2674     -7010.6418     -2046.5947    
     12000   0.85176268     875.84379     -9831.2198     -4773.7439    
     13000   0.82934211     731.86676     -9715.6592     -6500.9213    
     14000   0.82736461     613.94287     -8183.8328     -7768.0474    
     15000   0.84125804     553.90736     -7256.8853     -8778.586     
     16000   0.86840436     519.32394     -5688.5226     -9662.0068    
     17000   0.90500228     494.18477     -3861.6518     -10435.915    
     18000   0.94594866     469.20059     -1281.0443     -11077.092    
     19000   0.98587376     455.31226      294.89827     -11614.423    
     20000   1.0213524      440.35345      2619.9265     -12059.137    
Loop time of 26.6899 on 32 procs for 10000 steps with 3162 atoms

Performance: 0.324 ns/day, 74.139 hours/ns, 374.674 timesteps/s
99.6% CPU use with 32 MPI tasks x no OpenMP threads

MPI task timing breakdown:
Section |  min time  |  avg time  |  max time  |%varavg| %total
---------------------------------------------------------------
Pair    | 7.7955     | 10.023     | 13.026     |  42.0 | 37.56
Bond    | 0.032341   | 0.040706   | 0.048207   |   1.9 |  0.15
Kspace  | 5.0273     | 8.15       | 10.615     |  48.9 | 30.54
Neigh   | 0.015633   | 0.016887   | 0.01881    |   0.8 |  0.06
Comm    | 1.2567     | 1.5156     | 1.7827     |  12.4 |  5.68
Output  | 0.00056158 | 0.00058188 | 0.00079934 |   0.0 |  0.00
Modify  | 6.1911     | 6.5292     | 6.8112     |   6.7 | 24.46
Other   |            | 0.4135     |            |       |  1.55

Nlocal:        98.8125 ave         115 max          82 min
Histogram: 1 1 4 7 3 5 4 4 1 2
Nghost:        4088.78 ave        4113 max        4059 min
Histogram: 1 0 3 4 5 7 3 5 1 3
Neighs:        36974.4 ave       44786 max       30401 min
Histogram: 2 4 3 6 2 2 8 3 0 2

Total # of neighbors = 1183181
Ave neighs/atom = 374.18754
Ave special neighs/atom = 2.0341556
Neighbor list builds = 14
Dangerous builds = 0
PPPM initialization ...
  extracting TIP4P info from pair style
  using 12-bit tables for long-range coulomb (../kspace.cpp:342)
  G vector (1/distance) = 0.31068549
  grid = 30 30 30
  stencil order = 5
  estimated absolute RMS force accuracy = 0.0036303075
  estimated relative force accuracy = 1.0932563e-05
  using double precision KISS FFT
  3d grid and FFT values/proc = 4950 960
Generated 0 of 15 mixed pair_coeff terms from arithmetic mixing rule
Setting up Verlet run ...
  Unit style    : real
  Current step  : 20000
  Time step     : 0.1
Per MPI rank memory allocation (min/avg/max) = 15.41 | 15.45 | 15.48 Mbytes
   Step        Density          Temp          Press          TotEng    
     20000   1.0213524      440.35345      3018.8316     -12059.132    
     21000   1.1228356      329.67026     -943.12722     -15109.767    
     22000   1.1420749      304.64919      477.45694     -15878.252    
     23000   1.1327761      300.29073     -254.19222     -16146.512    
     24000   1.1116314      300.50101     -59.724036     -16287.467    
     25000   1.1030392      297.68745     -862.17206     -16429.309    
     26000   1.1120502      301.18717      520.09574     -16494.154    
     27000   1.1005107      298.37139      677.03786     -16484.372    
     28000   1.0890993      299.89207     -592.66516     -16560.603    
     29000   1.086592       296.95249     -420.30406     -16604.585    
     30000   1.0877326      300.14054      132.79833     -16604.041    
Loop time of 29.9278 on 32 procs for 10000 steps with 3162 atoms

Performance: 2.887 ns/day, 8.313 hours/ns, 334.137 timesteps/s
99.6% CPU use with 32 MPI tasks x no OpenMP threads

MPI task timing breakdown:
Section |  min time  |  avg time  |  max time  |%varavg| %total
---------------------------------------------------------------
Pair    | 10.868     | 12.439     | 14.561     |  27.6 | 41.56
Bond    | 0.035625   | 0.040835   | 0.048638   |   1.5 |  0.14
Kspace  | 5.4878     | 7.7506     | 9.4229     |  37.9 | 25.90
Neigh   | 0.12328    | 0.13269    | 0.14721    |   2.4 |  0.44
Comm    | 1.4493     | 1.7334     | 2.0117     |  13.4 |  5.79
Output  | 0.00052324 | 0.00056315 | 0.0011707  |   0.0 |  0.00
Modify  | 7.0845     | 7.4203     | 7.6966     |   6.3 | 24.79
Other   |            | 0.4101     |            |       |  1.37

Nlocal:        98.8125 ave         109 max          88 min
Histogram: 4 2 2 4 1 4 6 4 3 2
Nghost:        4306.44 ave        4359 max        4268 min
Histogram: 1 5 4 5 7 3 2 3 0 2
Neighs:        39936.9 ave       44968 max       35780 min
Histogram: 5 3 1 5 5 3 3 3 1 3

Total # of neighbors = 1277980
Ave neighs/atom = 404.16825
Ave special neighs/atom = 2.0341556
Neighbor list builds = 101
Dangerous builds = 0
PPPM initialization ...
  extracting TIP4P info from pair style
  using 12-bit tables for long-range coulomb (../kspace.cpp:342)
  G vector (1/distance) = 0.31219157
  grid = 30 30 30
  stencil order = 5
  estimated absolute RMS force accuracy = 0.0034105094
  estimated relative force accuracy = 1.0270648e-05
  using double precision KISS FFT
  3d grid and FFT values/proc = 4950 960
Generated 0 of 15 mixed pair_coeff terms from arithmetic mixing rule
Setting up Verlet run ...
  Unit style    : real
  Current step  : 30000
  Time step     : 0.2
Per MPI rank memory allocation (min/avg/max) = 15.41 | 15.45 | 15.48 Mbytes
   Step        Density          Temp          Press          TotEng    
     30000   1.0877326      300.14054      1667.0892     -16604.046    
     31000   1.081374       290.69686     -480.75039     -16635.911    
     32000   1.0867361      292.66033      413.2561      -16635.917    
     33000   1.0874614      303.86635      209.82924     -16625.741    
     34000   1.0853167      304.31886     -1304.7967     -16673.999    
     35000   1.0924362      293.91006     -454.15742     -16715.321    
     36000   1.0881684      296.72599      867.42406     -16690.927    
     37000   1.0764118      302.83777     -1230.4223     -16655.177    
     38000   1.0802985      300.62761      232.42825     -16617.797    
     39000   1.0866786      291.97109      357.06298     -16824.811    
     40000   1.0792057      301.68967     -78.6763       -16665.572    
Loop time of 29.6213 on 32 procs for 10000 steps with 3162 atoms

Performance: 5.834 ns/day, 4.114 hours/ns, 337.595 timesteps/s
99.6% CPU use with 32 MPI tasks x no OpenMP threads

MPI task timing breakdown:
Section |  min time  |  avg time  |  max time  |%varavg| %total
---------------------------------------------------------------
Pair    | 11.1       | 12.375     | 14.357     |  24.0 | 41.78
Bond    | 0.036005   | 0.040834   | 0.047468   |   1.5 |  0.14
Kspace  | 5.4842     | 7.403      | 8.9233     |  33.8 | 24.99
Neigh   | 0.24103    | 0.2609     | 0.28987    |   3.5 |  0.88
Comm    | 1.4582     | 1.7367     | 2.0118     |  13.5 |  5.86
Output  | 0.00049938 | 0.0005389  | 0.00079985 |   0.0 |  0.00
Modify  | 7.0684     | 7.3977     | 7.6653     |   6.2 | 24.97
Other   |            | 0.407      |            |       |  1.37

Nlocal:        98.8125 ave         110 max          83 min
Histogram: 1 0 1 6 4 4 6 4 3 3
Nghost:         4260.5 ave        4294 max        4229 min
Histogram: 4 3 1 7 0 4 4 5 3 1
Neighs:        39665.5 ave       47194 max       33705 min
Histogram: 4 1 3 8 3 4 3 4 1 1

Total # of neighbors = 1269297
Ave neighs/atom = 401.4222
Ave special neighs/atom = 2.0341556
Neighbor list builds = 203
Dangerous builds = 0
PPPM initialization ...
  extracting TIP4P info from pair style
  using 12-bit tables for long-range coulomb (../kspace.cpp:342)
  G vector (1/distance) = 0.31200392
  grid = 30 30 30
  stencil order = 5
  estimated absolute RMS force accuracy = 0.0034372133
  estimated relative force accuracy = 1.0351066e-05
  using double precision KISS FFT
  3d grid and FFT values/proc = 4950 960
Generated 0 of 15 mixed pair_coeff terms from arithmetic mixing rule
Setting up Verlet run ...
  Unit style    : real
  Current step  : 40000
  Time step     : 0.5
Per MPI rank memory allocation (min/avg/max) = 15.41 | 15.45 | 15.48 Mbytes
   Step        Density          Temp          Press          TotEng    
     40000   1.0792057      301.68967      2041.5725     -16665.573    
     41000   1.0789676      292.39023     -292.04361     -16761.662    
     42000   1.0768965      293.9696      -503.21494     -16847.785    
     43000   1.0759041      305.26293     -33.317097     -16755.566    
     44000   1.0697062      301.51031     -114.17184     -16833.519    
     45000   1.0782419      294.24201     -28.849674     -16892.436    
     46000   1.0837407      305.53171     -704.25567     -16747.873    
     47000   1.081447       296.99985      543.38276     -16782.391    
     48000   1.079407       287.0068      -194.57627     -16921.637    
     49000   1.0829434      295.83856      93.283503     -16865.402    
     50000   1.0737178      303.43334      112.29067     -16845.951    
Loop time of 30.0666 on 32 procs for 10000 steps with 3162 atoms

Performance: 14.368 ns/day, 1.670 hours/ns, 332.595 timesteps/s
99.6% CPU use with 32 MPI tasks x no OpenMP threads

MPI task timing breakdown:
Section |  min time  |  avg time  |  max time  |%varavg| %total
---------------------------------------------------------------
Pair    | 10.915     | 12.339     | 13.635     |  20.8 | 41.04
Bond    | 0.035472   | 0.040873   | 0.047235   |   1.2 |  0.14
Kspace  | 5.7009     | 7.1913     | 8.6162     |  29.6 | 23.92
Neigh   | 0.67713    | 0.73135    | 0.81333    |   5.8 |  2.43
Comm    | 1.4924     | 1.7981     | 2.0931     |  14.2 |  5.98
Output  | 0.00050368 | 0.00053169 | 0.00076761 |   0.0 |  0.00
Modify  | 7.2284     | 7.5567     | 7.8482     |   6.2 | 25.13
Other   |            | 0.4083     |            |       |  1.36

Nlocal:        98.8125 ave         109 max          86 min
Histogram: 2 2 1 3 4 3 8 6 1 2
Nghost:        4258.38 ave        4317 max        4188 min
Histogram: 3 2 3 5 3 2 2 2 3 7
Neighs:        39409.9 ave       46290 max       32672 min
Histogram: 3 1 4 2 5 3 7 4 2 1

Total # of neighbors = 1261116
Ave neighs/atom = 398.83491
Ave special neighs/atom = 2.0341556
Neighbor list builds = 569
Dangerous builds = 0
  create bodies CPU = 0.000 seconds
  1054 rigid bodies with 3162 atoms
  1.4902091 = max distance from body owner to body atom
PPPM initialization ...
  extracting TIP4P info from pair style
  using 12-bit tables for long-range coulomb (../kspace.cpp:342)
  G vector (1/distance) = 0.31188227
  grid = 30 30 30
  stencil order = 5
  estimated absolute RMS force accuracy = 0.0034546271
  estimated relative force accuracy = 1.0403507e-05
  using double precision KISS FFT
  3d grid and FFT values/proc = 4950 960
Generated 0 of 15 mixed pair_coeff terms from arithmetic mixing rule
Setting up Verlet run ...
  Unit style    : real
  Current step  : 0
  Time step     : 1
Per MPI rank memory allocation (min/avg/max) = 16.44 | 16.48 | 16.5 Mbytes
   Step        Density          Temp          Press          TotEng    
         0   1.0737178      303.43334      1838.6983     -16845.952    
      1000   1.0833859      301.7853      -19.597091     -16739.012    
      2000   1.0792941      295.91733     -756.27241     -16853.467    
      3000   1.0896778      295.71915      937.19564     -16865.237    
      4000   1.0869788      302.7145      -7.8442741     -16832.124    
      5000   1.074172       307.4392       113.04795     -16810.796    
      6000   1.0727972      297.59943     -651.72199     -16809.607    
      7000   1.0901556      290.25044      897.67559     -16849.149    
      8000   1.0619498      292.76639     -277.76127     -16724.932    
      9000   1.086158       302.07091      549.92459     -16761.328    
     10000   1.0749653      299.7725      -130.08609     -16799.38     
     11000   1.0702634      295.86368     -736.62791     -16854.062    
     12000   1.0741195      308.34125      27.894476     -16745.718    
     13000   1.0970606      287.25742      431.28946     -16851.979    
     14000   1.0748568      310.19377     -785.45212     -16725.767    
     15000   1.0862331      298.73057      282.82104     -16836.563    
     16000   1.0667044      291.98972     -254.06978     -16799.996    
     17000   1.0670593      301.09781      337.11505     -16808.318    
     18000   1.0808028      295.29685     -323.74729     -16798.119    
     19000   1.0796524      291.19337     -387.76972     -16810.3      
     20000   1.0771959      296.04423     -341.62116     -16884.802    
     21000   1.0898475      297.68096      260.07253     -16801.494    
     22000   1.0846782      299.47984      156.30998     -16843.44     
     23000   1.0784275      294.6406      -234.7326      -16792.335    
     24000   1.0878868      301.62328     -529.12211     -16762.644    
     25000   1.0784293      296.11915      103.29456     -16746.563    
     26000   1.0795058      291.17878      174.90433     -16882.71     
     27000   1.0903515      293.0729      -111.11339     -16922.858    
     28000   1.0865222      299.57887      568.4516      -16797.192    
     29000   1.0750653      287.55938      233.50568     -16872.556    
     30000   1.0765475      289.48881      8.62413       -16805.197    
     31000   1.0768555      303.33168      99.387206     -16861.226    
     32000   1.076416       294.17748      52.24066      -16802.778    
     33000   1.0842631      297.14475      630.66671     -16828.374    
     34000   1.0811238      293.39642     -170.9578      -16854.883    
     35000   1.0835042      297.72907      485.89137     -16783.059    
     36000   1.0751605      295.43526      264.65868     -16817.285    
     37000   1.079767       308.56002      360.26064     -16803.964    
     38000   1.0841909      299.8661       419.86624     -16774.879    
     39000   1.081127       303.01201     -180.21039     -16812.703    
     40000   1.0773229      293.99114     -397.2674      -16858.842    
     41000   1.0754338      292.8395      -33.614989     -16859.387    
     42000   1.081665       290.70804      171.62476     -16871.971    
     43000   1.0789221      297.41744     -216.36447     -16747.098    
     44000   1.0930142      298.03584     -27.066264     -16890.199    
     45000   1.0685547      296.45448      39.451271     -16815.51     
     46000   1.0826498      299.82064     -161.18871     -16739.783    
     47000   1.0788933      296.60637     -738.45452     -16772.231    
     48000   1.0922007      304.19601      332.57847     -16846.761    
     49000   1.0849811      290.53142      145.12683     -16794.731    
     50000   1.092066       301.45805      176.64014     -16823.479    
     51000   1.0917738      301.12302      264.74983     -16746.81     
     52000   1.085705       294.71054     -509.01525     -16809.536    
     53000   1.0826248      298.96247      12.720496     -16773.87     
     54000   1.0946663      296.84963      244.63717     -16857.975    
     55000   1.0836893      306.94553      517.66226     -16765.698    
     56000   1.0851935      294.69713      269.97614     -16933.33     
     57000   1.0768624      297.91371      301.49071     -16828.795    
     58000   1.0767781      301.42327     -154.02623     -16802.297    
     59000   1.0889128      297.33452      283.97967     -16885.36     
     60000   1.0781183      295.0232      -774.01423     -16820.098    
     61000   1.0823494      302.13901     -204.97924     -16811.341    
     62000   1.0868437      296.05377      167.23849     -16805.132    
     63000   1.0760165      287.0706      -910.2542      -16732.09     
     64000   1.0760676      299.25608     -412.32181     -16789.77     
     65000   1.0878542      305.26488      298.40801     -16646.802    
     66000   1.0813123      300.87565      659.57125     -16793.261    
     67000   1.0677199      297.37502     -833.12936     -16775.653    
     68000   1.0830624      303.88628      849.66813     -16749.228    
     69000   1.0855707      299.58431     -320.98059     -16796.533    
     70000   1.0779414      303.92621      601.16194     -16710.639    
     71000   1.0846446      302.95835      259.89431     -16722.66     
     72000   1.07692        302.50579     -417.3822      -16727.272    
     73000   1.0803945      290.55128     -316.20104     -16858.108    
     74000   1.0930653      308.06152      56.788839     -16850.79     
     75000   1.0791792      298.36029     -1044.1929     -16858.132    
     76000   1.0863613      300.44361     -63.315878     -16773.061    
     77000   1.0746373      288.36579     -529.11645     -16929.332    
     78000   1.08998        297.72604      468.59666     -16959.635    
     79000   1.0817037      297.30025     -479.93548     -16783.221    
     80000   1.0905158      293.02383     -397.11035     -16776.505    
     81000   1.0911388      296.80696      359.24432     -16746.904    
     82000   1.0683889      299.45361     -756.82089     -16793.565    
     83000   1.0794821      296.89681     -224.71082     -16825.239    
     84000   1.0806246      306.85922      593.22352     -16691.023    
     85000   1.0809771      301.74291      461.8318      -16803.466    
     86000   1.0855707      291.34422     -62.440273     -16913.564    
     87000   1.0877144      299.98908     -56.698403     -16862.154    
     88000   1.0687934      299.06839     -942.35494     -16777.932    
     89000   1.0772432      295.49955     -136.83991     -16780.046    
     90000   1.0748768      304.75018     -170.45341     -16686.162    
     91000   1.0749618      299.55274      195.75741     -16780.963    
     92000   1.0797478      293.0477       435.10682     -16848.532    
     93000   1.0759094      301.71583      258.57231     -16699.477    
     94000   1.0830802      293.16267      748.61896     -16898.022    
     95000   1.0781032      294.25665     -235.02065     -16873.107    
     96000   1.0818317      304.70762      754.43732     -16740.055    
     97000   1.0682359      292.03642     -676.49318     -16792.601    
     98000   1.0903379      292.49947      808.42589     -16835.281    
     99000   1.072666       288.84208      4.0761219     -16812.929    
    100000   1.0652824      293.28593      157.82111     -16764.097    
    101000   1.082885       292.51267      813.74594     -16821.548    
    102000   1.0840304      292.04122     -560.557       -16819.18     
    103000   1.0940869      293.27505      890.80121     -16900.194    
    104000   1.0742087      298.93025     -826.6454      -16746.759    
    105000   1.0887301      303.54217     -502.77644     -16706.203    
    106000   1.0825507      297.26161     -631.65144     -16745.508    
    107000   1.0674327      292.722       -756.31599     -16845.239    
    108000   1.078624       294.6376       559.04004     -16802.187    
    109000   1.077386       301.01643      154.8692      -16805.597    
    110000   1.0843651      296.39654      295.85625     -16873.772    
    111000   1.0785483      295.40432      61.478137     -16746.748    
    112000   1.0785554      290.98805      570.53165     -16900.556    
    113000   1.0854065      301.43234      58.372516     -16731.031    
    114000   1.0878652      296.96972      206.12025     -16807.233    
    115000   1.0669248      303.37423     -406.6477      -16653.363    
    116000   1.0854449      303.73654     -24.505664     -16815.498    
    117000   1.0792003      292.03678     -20.072445     -16870.381    
    118000   1.0775851      305.81096     -450.99141     -16802.991    
    119000   1.0891468      300.03384      604.45404     -16778.508    
    120000   1.0728115      305.10153      230.65477     -16690.787    
    121000   1.0832849      296.32304     -72.627532     -16878.454    
    122000   1.0617488      302.78135     -637.50265     -16745.749    
    123000   1.0840724      292.82031      362.19024     -16844.939    
    124000   1.0695018      295.84947     -803.4275      -16815.261    
    125000   1.0816316      287.68215      614.17675     -16814.313    
    126000   1.0791398      297.99981     -124.57569     -16920.664    
    127000   1.0728873      306.67448     -132.83562     -16763.707    
    128000   1.0643925      310.92878     -126.24961     -16663.663    
    129000   1.0800163      291.47522     -246.04925     -16907.431    
    130000   1.0674769      291.38513     -347.02351     -16869.162    
    131000   1.0823586      298.5454       660.43686     -16863.484    
    132000   1.0759809      296.76965      493.53069     -16869.717    
    133000   1.0701324      304.55117      385.00019     -16680.885    
    134000   1.0767193      298.93797     -331.3327      -16776.175    
    135000   1.0752994      297.9943       266.15686     -16797.947    
    136000   1.0884502      297.94554      283.59292     -16933.07     
    137000   1.0822529      294.62036      2.6376765     -16875.275    
    138000   1.075715       292.94432     -1327.6043     -16870.518    
    139000   1.0911329      298.87599      1269.8889     -16844.07     
    140000   1.0719154      297.26083     -452.98208     -16805.148    
    141000   1.0767653      298.69741     -205.05621     -16845.948    
    142000   1.082734       299.77338      140.52908     -16780.278    
    143000   1.0804073      307.12902      388.8207      -16811.508    
    144000   1.0842801      285.39384     -1461.1389     -16970.146    
    145000   1.090142       304.1405       621.98653     -16866.791    
    146000   1.0732563      303.18377     -97.548782     -16750.482    
    147000   1.0895018      302.95129     -358.2775      -16786.508    
    148000   1.0732606      304.32831     -458.3987      -16771.702    
    149000   1.0988301      297.29836      338.80116     -16842.836    
    150000   1.083462       299.03767     -247.93623     -16827.755    
    151000   1.0861774      302.25714     -843.80839     -16814.516    
    152000   1.0890643      299.95392     -73.16157      -16812.709    
    153000   1.0929486      302.56205     -37.437118     -16837.135    
    154000   1.0875573      302.90823      173.97713     -16782.47     
    155000   1.0903049      285.85745      204.3991      -16927.806    
    156000   1.0663443      287.32341     -108.97542     -16779.597    
    157000   1.0771685      294.29041      488.81635     -16850.744    
    158000   1.0820944      308.19966     -114.43745     -16660.579    
    159000   1.0850065      299.09033     -527.58873     -16879.719    
    160000   1.075307       299.23837     -481.19645     -16711.58     
    161000   1.0841767      296.02982      20.236795     -16781.561    
    162000   1.0890801      292.26851      260.04126     -16778.547    
    163000   1.0880392      295.07665      664.15834     -16791.245    
    164000   1.0988144      304.08694     -77.307241     -16837.781    
    165000   1.0884775      299.46225      392.24467     -16808.679    
    166000   1.0869709      298.40533      624.16332     -16715.903    
    167000   1.0715938      298.59744     -601.37364     -16770.044    
    168000   1.0731164      301.12792      480.77528     -16765.462    
    169000   1.0781903      305.8438      -287.54579     -16823.343    
    170000   1.086391       297.37417      277.6011      -16816.091    
    171000   1.0809097      301.45192     -145.50272     -16798.163    
    172000   1.0731003      294.9058       49.205383     -16780.874    
    173000   1.0775082      295.79398      61.18503      -16782.322    
    174000   1.0840288      299.71342     -176.89832     -16765.894    
    175000   1.0831432      304.68698     -516.40901     -16774.79     
    176000   1.0768257      293.92095      85.895826     -16941.575    
    177000   1.0728499      297.62196     -235.63267     -16751.177    
    178000   1.0853129      303.35461     -307.97611     -16764.991    
    179000   1.0911279      297.82432      435.9585      -16875.571    
    180000   1.0691152      289.99445      103.98294     -16755.417    
    181000   1.0876097      296.74708     -61.727214     -16849.14     
    182000   1.0837587      298.68523     -198.56291     -16776.884    
    183000   1.0768759      298.09439     -235.0117      -16711.533    
    184000   1.0863039      296.85893      858.49123     -16872.224    
    185000   1.0764313      305.98503     -149.2537      -16717.661    
    186000   1.0752101      296.86395     -185.36262     -16848.017    
    187000   1.0849548      303.11155      244.37804     -16758.905    
    188000   1.0801825      295.67196     -231.38863     -16811.758    
    189000   1.0800208      286.60821     -385.44014     -16803.785    
    190000   1.0856491      296.68952      375.78469     -16876.927    
    191000   1.0806998      294.33637      437.48394     -16770.908    
    192000   1.0905835      293.23618      625.27931     -16867.612    
    193000   1.0776624      302.18206      483.28359     -16773.385    
    194000   1.0694634      294.83315     -814.80985     -16819.895    
    195000   1.0904796      299.51896      606.48389     -16867.38     
    196000   1.0757955      294.65518     -103.11223     -16849.562    
    197000   1.0884315      296.88209      1299.1973     -16826.815    
    198000   1.0773171      306.1635       122.29864     -16720.182    
    199000   1.0769772      284.6112      -310.77218     -16831.256    
    200000   1.0886299      289.81004      484.16011     -16870.024    
    201000   1.0882655      294.14425     -329.02262     -16828.642    
    202000   1.0864352      309.98033      503.66279     -16704.074    
    203000   1.0804074      305.29343      48.918299     -16709.568    
    204000   1.0789451      310.46225     -325.02964     -16743.799    
    205000   1.0706811      306.80741     -36.481962     -16707.992    
    206000   1.0709568      304.47403      484.86174     -16872.119    
    207000   1.0797629      299.82756      46.284518     -16737.153    
    208000   1.0926878      306.4443      -85.793743     -16735.684    
    209000   1.095469       292.50793      91.736659     -16873.264    
    210000   1.0841353      295.49222     -323.79886     -16854.954    
    211000   1.0833244      299.28566      178.13457     -16762.889    
    212000   1.0870868      302.91628      738.75241     -16810.553    
    213000   1.0789935      299.84391     -65.579679     -16807.712    
    214000   1.0867489      294.70849     -80.693975     -16849.821    
    215000   1.085109       298.83761     -894.10538     -16846.571    
    216000   1.0712027      305.95101     -112.61407     -16751.601    
    217000   1.0901954      290.75644      272.95922     -16839.201    
    218000   1.0752298      303.36271     -178.66641     -16714.339    
    219000   1.0868901      298.88571      84.117471     -16762.006    
    220000   1.0774727      298.99899     -6.8918451     -16780.36     
    221000   1.085739       301.29455      466.48043     -16802.067    
    222000   1.0793352      298.42667      583.26498     -16784.563    
    223000   1.0867698      303.28997      50.446997     -16871.321    
    224000   1.0848765      296.7684      -595.62538     -16794.955    
    225000   1.080025       300.1602      -30.85291      -16812.216    
    226000   1.0836054      303.93227     -265.77981     -16774.307    
    227000   1.0761777      298.92507      112.57805     -16733.687    
    228000   1.0794721      291.97942      102.62941     -16818.528    
    229000   1.0878574      289.67962      469.56661     -16925.691    
    230000   1.0779428      302.23388      175.71201     -16763.797    
    231000   1.0865471      300.46622      158.22563     -16851.691    
    232000   1.0814546      304.65093     -66.616641     -16773.449    
    233000   1.0885417      297.90945     -478.99024     -16829.856    
    234000   1.0874622      297.49571     -447.1566      -16848.685    
    235000   1.0905716      296.96784     -186.82388     -16848.07     
    236000   1.0904089      299.20306      92.153041     -16884.334    
    237000   1.0787661      297.77262     -960.92995     -16756.304    
    238000   1.0871306      304.8385      -722.86552     -16715.135    
    239000   1.0845256      296.19515     -219.15681     -16763.165    
    240000   1.0939911      297.91905      309.44615     -16804.173    
    241000   1.0901952      294.17498     -262.27814     -16840.953    
    242000   1.08233        301.30019     -280.17738     -16750.671    
    243000   1.0714341      298.83591     -1008.7184     -16800.958    
    244000   1.087246       296.95672      885.08296     -16818.627    
    245000   1.0817228      294.38026     -82.151417     -16865.627    
    246000   1.0811022      300.34281     -1086.6231     -16751.858    
    247000   1.0772214      298.05251     -848.03953     -16653.301    
    248000   1.088444       309.06068      104.14085     -16751.544    
    249000   1.0712939      297.08146     -403.98165     -16719.872    
    250000   1.0924102      300.03863      804.32942     -16769.737    
    251000   1.0809344      294.44386     -630.5143      -16836.81     
    252000   1.0808154      309.27111      401.90611     -16671.62     
    253000   1.0935345      299.36823      591.90884     -16871.493    
    254000   1.0788782      298.04043     -24.287765     -16786.622    
    255000   1.0874741      298.17863      343.09515     -16868.673    
    256000   1.079598       301.08927     -72.862175     -16756.501    
    257000   1.0788797      298.1931      -395.61207     -16745.371    
    258000   1.0931271      297.3232       439.12456     -16834.814    
    259000   1.078701       303.93982     -1231.0829     -16767.859    
    260000   1.0913464      301.97628      559.25031     -16876.679    
    261000   1.0769297      296.97882     -407.83957     -16786.18     
    262000   1.0753294      299.18044     -172.18842     -16766.673    
    263000   1.0845008      294.49629      775.67622     -16834.644    
    264000   1.0751935      296.13903      25.819529     -16748.878    
    265000   1.0788207      298.65209      1038.4242     -16747.356    
    266000   1.0712392      303.80749     -468.44526     -16785.263    
    267000   1.0780736      295.30159     -39.308722     -16854.614    
    268000   1.0754684      297.278       -756.91554     -16892.715    
    269000   1.0786177      302.7062      -50.133836     -16833.813    
    270000   1.0860851      292.45363      228.15147     -16822.351    
    271000   1.0949333      278.53403      278.47118     -16912.838    
    272000   1.0886964      296.65347     -79.807008     -16757.698    
    273000   1.0946252      293.32504      599.00631     -16902.127    
    274000   1.079158       297.64375     -665.25365     -16818.671    
    275000   1.0885587      298.51005      15.010453     -16852.694    
    276000   1.091386       294.10953      572.01709     -16847.327    
    277000   1.0798118      301.02826     -317.89828     -16777.513    
    278000   1.0834405      304.09029     -154.86935     -16708.921    
    279000   1.0791127      298.62449     -272.50338     -16792.559    
    280000   1.0798859      284.5887       160.34586     -16901.786    
    281000   1.0754765      295.09917     -16.09831      -16821.154    
    282000   1.0767124      303.95473      216.5025      -16683.022    
    283000   1.0804799      300.41406      25.814077     -16808.026    
    284000   1.0695656      299.27798      440.97871     -16820.724    
    285000   1.0809626      293.12771      84.087854     -16872.339    
    286000   1.08894        287.55743      391.63011     -16894.139    
    287000   1.0814766      298.65178      98.673563     -16723.946    
    288000   1.0880226      303.20822      231.46212     -16809.405    
    289000   1.0909611      301.12577      109.48267     -16748.588    
    290000   1.0779194      297.68111     -225.87864     -16829.436    
    291000   1.0931563      304.27051      22.4631       -16756.921    
    292000   1.0893245      292.93291     -105.09647     -16835.419    
    293000   1.0821349      294.38211     -310.14311     -16774.149    
    294000   1.0853881      298.6291       443.20914     -16803.073    
    295000   1.0818928      310.46035     -186.51571     -16763.797    
    296000   1.0880432      295.82679      376.63677     -16813.43     
    297000   1.0812856      293.12827      688.03611     -16826.472    
    298000   1.0900075      307.04358      977.6064      -16770.141    
    299000   1.0898164      301.37287      55.968676     -16806.902    
    300000   1.0794238      307.61367     -471.73699     -16723.952    
    301000   1.0827869      298.73361     -743.79801     -16721.297    
    302000   1.0810696      301.97496     -591.95677     -16785.811    
    303000   1.0770469      293.32812      68.782788     -16829.695    
    304000   1.0950191      296.66409      609.78667     -16925.653    
    305000   1.0776916      308.01119     -158.98124     -16729.297    
    306000   1.1022339      303.88163      63.287095     -16749.095    
    307000   1.0898728      290.07628      162.32274     -16819.539    
    308000   1.0771578      311.65496      179.68466     -16778.121    
    309000   1.0824072      303.77805      128.16456     -16765.326    
    310000   1.0883668      300.27101     -215.3192      -16810.286    
    311000   1.0779099      297.28708     -116.1115      -16797.094    
    312000   1.0828678      299.01923      343.52513     -16796.513    
    313000   1.0663336      296.65292     -531.19155     -16855.905    
    314000   1.0775212      292.43431     -511.51666     -16882.786    
    315000   1.0853943      290.50705      544.8599      -16772.167    
    316000   1.0785961      291.67375     -345.56266     -16815.785    
    317000   1.0923206      296.21872      331.18309     -16819.694    
    318000   1.0819968      294.90704     -432.82221     -16884.421    
    319000   1.0674168      292.37043     -485.70241     -16784.787    
    320000   1.0743926      291.56911     -213.84786     -16902.558    
    321000   1.0911167      298.1034       268.38737     -16774.608    
    322000   1.081018       305.45807     -178.48251     -16855.092    
    323000   1.090192       297.59316     -686.24687     -16758.168    
    324000   1.0941838      300.42639     -120.30521     -16774.376    
    325000   1.1033371      300.997        1288.7896     -16896.094    
    326000   1.0877945      303.6856      -0.63584354    -16704.795    
    327000   1.088589       298.48941      113.30242     -16908.116    
    328000   1.0894247      302.0336      -84.431779     -16741.644    
    329000   1.0847461      299.80491     -589.03883     -16780.334    
    330000   1.0749056      295.84282     -568.16383     -16853.89     
    331000   1.0842655      300.79777      582.3689      -16715.618    
    332000   1.0811645      297.68629     -610.5345      -16793.625    
    333000   1.0752761      302.19017      120.03685     -16781.747    
    334000   1.0796449      297.07281     -545.86678     -16815.829    
    335000   1.0902848      296.42332     -381.36901     -16778.978    
    336000   1.0734549      306.43116      30.977117     -16815.611    
    337000   1.0835685      307.09665      316.93782     -16797.598    
    338000   1.0758005      301.64254     -60.838476     -16842.692    
    339000   1.0866297      297.25959      185.36501     -16909.202    
    340000   1.0778197      291.51538     -423.4996      -16930.228    
    341000   1.0804619      291.61014     -401.91113     -16730.751    
    342000   1.0852542      298.95352     -186.43055     -16757.987    
    343000   1.0704878      304.41391     -327.24659     -16711.429    
    344000   1.0753848      297.5071      -654.66368     -16786.071    
    345000   1.0888307      303.81375      605.04378     -16720.758    
    346000   1.0861488      296.65187      211.16944     -16717.249    
    347000   1.0752455      297.36873     -628.66934     -16805.701    
    348000   1.0682831      297.02848     -390.5832      -16804.373    
    349000   1.0662185      294.83785      110.82085     -16744.454    
    350000   1.0814191      295.32815      222.17473     -16772.321    
    351000   1.0836448      294.37299     -187.84057     -16854.988    
    352000   1.0738506      307.89046      102.76501     -16724.127    
    353000   1.0889861      294.25679      563.2102      -16868.682    
    354000   1.0785889      296.20749      604.75679     -16829.434    
    355000   1.0750957      310.44759      120.57355     -16693.274    
    356000   1.0830994      298.37797     -260.36623     -16893.522    
    357000   1.0777679      303.3558      -45.408628     -16703.646    
    358000   1.0891988      288.44185      109.22405     -16825.527    
    359000   1.0884098      298.43541      409.84333     -16754.832    
    360000   1.0847184      303.3113       379.43402     -16772.177    
    361000   1.0919622      295.33069      446.96218     -16856.958    
    362000   1.0784022      287.48828     -671.12493     -16853.079    
    363000   1.0860677      298.47736      65.682028     -16817.597    
    364000   1.0869145      298.83684      258.8105      -16882.932    
    365000   1.0883398      298.46986     -383.93017     -16891.488    
    366000   1.0776929      295.49167     -495.96687     -16814.466    
    367000   1.0820835      296.25707      288.39331     -16864.525    
    368000   1.083455       297.92236      398.10199     -16815.589    
    369000   1.0813701      291.81796     -29.757659     -16872.11     
    370000   1.0764038      302.41419      194.43571     -16772.818    
    371000   1.0770827      301.36075      320.43282     -16754.498    
    372000   1.0793341      281.20363     -444.83189     -16965.109    
    373000   1.0809492      293.27636      632.37565     -16871.825    
    374000   1.0773212      302.25296      179.68766     -16816.444    
    375000   1.0796221      298.6938      -467.98222     -16883.048    
    376000   1.0894739      294.00681     -586.83439     -16908.693    
    377000   1.079043       302.53542     -282.40968     -16774.437    
    378000   1.0780398      300.00904      12.998089     -16902.628    
    379000   1.0709593      292.67139     -371.44713     -16817.953    
    380000   1.0810328      298.23867      765.76695     -16816.798    
    381000   1.0771693      299.687        11.086299     -16792.227    
    382000   1.0828383      289.49644     -226.70956     -16908.729    
    383000   1.0766751      299.45035     -82.424558     -16746.725    
    384000   1.0731857      286.45549      130.17864     -16871.394    
    385000   1.0739502      304.66809     -645.0444      -16811.858    
    386000   1.089533       304.55417     -301.18935     -16828.66     
    387000   1.0793003      296.42369      24.143458     -16839.565    
    388000   1.0759672      298.31843     -93.406963     -16844.98     
    389000   1.0794558      296.50293      856.47824     -16856.393    
    390000   1.0684045      304.91629     -216.70899     -16764.4      
    391000   1.066465       295.43348      485.56534     -16819.162    
    392000   1.0779835      307.72267     -390.88763     -16690.134    
    393000   1.0740347      297.49972      896.01344     -16818.323    
    394000   1.0924688      301.91755      111.10742     -16847.469    
    395000   1.0716099      294.41298     -269.25966     -16763.842    
    396000   1.0728528      295.72115      167.78302     -16860.543    
    397000   1.0678804      297.3078      -759.17805     -16818.813    
    398000   1.0937846      297.71279      437.7493      -16779.703    
    399000   1.0815739      294.99586     -693.42896     -16774.84     
    400000   1.0776398      297.04079      139.97205     -16845.579    
    401000   1.0748295      295.86035     -904.08873     -16882.634    
    402000   1.0772798      296.93634     -671.46098     -16876.843    
    403000   1.0763452      286.80979     -339.71418     -16941.36     
    404000   1.0892454      304.35301      130.51978     -16795.027    
    405000   1.0737536      296.60591      352.28942     -16788.818    
    406000   1.0868875      301.72908      246.60979     -16761.586    
    407000   1.0890973      288.00998      659.62614     -16976.844    
    408000   1.0827315      299.96137      354.11003     -16748.653    
    409000   1.0812878      293.22025      512.29945     -16906.937    
    410000   1.0748094      289.32319      148.01716     -16863.191    
    411000   1.0890682      302.71398     -401.42436     -16772.033    
    412000   1.094543       297.65573      980.77175     -16880.934    
    413000   1.0777844      295.10152     -725.50883     -16769.806    
    414000   1.0809059      296.56565      356.54907     -16785.485    
    415000   1.0774327      304.22844      63.274995     -16831.025    
    416000   1.0834178      301.35098      127.40601     -16846.188    
    417000   1.0729294      297.59711     -789.49943     -16779.873    
    418000   1.0802536      292.25895     -526.28667     -16860.079    
    419000   1.0791884      303.31909     -922.08832     -16741.83     
    420000   1.0816397      299.34616     -403.16517     -16765.196    
    421000   1.0821493      294.62051     -339.04606     -16882.304    
    422000   1.0823503      290.89874      427.16352     -16881.297    
    423000   1.0713862      292.89921     -626.62301     -16784.99     
    424000   1.094293       300.27735     -86.887325     -16825.54     
    425000   1.0667919      304.65506     -1610.152      -16705.187    
    426000   1.0801074      306.17338      518.50684     -16810.629    
    427000   1.0734845      309.06326     -510.61418     -16796.554    
    428000   1.0779108      299.39417     -528.75838     -16816.105    
    429000   1.0774537      295.75339      661.3781      -16895.578    
    430000   1.085792       296.71748      189.79384     -16889.761    
    431000   1.081174       297.21855     -187.36798     -16866.96     
    432000   1.0911351      297.14126     -15.677453     -16887.888    
    433000   1.0972343      292.34105      103.89853     -16794.314    
    434000   1.0942437      294.81552     -288.98202     -16851.02     
    435000   1.1022585      287.95748      325.43401     -16873.99     
    436000   1.0950946      297.80569     -128.66819     -16861.089    
    437000   1.1090115      294.54158      582.62836     -16833.092    
    438000   1.0847197      295.01949     -130.72497     -16889.226    
    439000   1.0788521      310.4797       109.21555     -16786.386    
    440000   1.0762351      289.588       -659.72974     -16925.524    
    441000   1.0861518      298.80737      927.89321     -16837.899    
    442000   1.0793786      296.5298       42.616109     -16868.426    
    443000   1.0908214      299.44401      532.26682     -16878.53     
    444000   1.0735674      295.76099     -49.60154      -16879.686    
    445000   1.0891535      310.13296      438.66273     -16782.651    
    446000   1.0795812      296.25962      25.806767     -16777.219    
    447000   1.0877603      297.74949      172.59094     -16788.149    
    448000   1.0958639      289.37822      147.82277     -16951.206    
    449000   1.0802491      304.35155     -495.02334     -16801.821    
    450000   1.0967065      307.8049      -32.742846     -16787.456    
    451000   1.078479       306.6681       461.87594     -16746.491    
    452000   1.07905        308.93863     -32.234194     -16777.734    
    453000   1.0907328      295.58928     -704.02894     -16881.409    
    454000   1.0838525      299.90296     -209.83815     -16806.06     
    455000   1.0785041      305.37262      346.8979      -16762.26     
    456000   1.0867897      297.71756     -754.96001     -16841.008    
    457000   1.0905302      299.59373     -582.32489     -16880.177    
    458000   1.095976       302.8436       1004.0096     -16763.367    
    459000   1.0952457      290.10395      988.2288      -16866.298    
    460000   1.0737786      300.08269     -224.86307     -16790.329    
    461000   1.0832228      291.48853     -93.389969     -16892.86     
    462000   1.0746169      295.52699     -521.36385     -16780.417    
    463000   1.0821594      295.64321      143.80909     -16800.002    
    464000   1.0642274      303.19124     -320.57358     -16708.779    
    465000   1.090572       294.87961      876.73062     -16811.172    
    466000   1.0772877      302.87833     -821.64924     -16717.938    
    467000   1.091898       295.84074      82.651059     -16837.595    
    468000   1.0814355      292.81081      221.44939     -16724.584    
    469000   1.0886038      291.27808      309.54073     -16880.303    
    470000   1.0744892      286.95809     -20.986305     -16822.056    
    471000   1.0836654      302.82255     -93.586501     -16759.04     
    472000   1.0780885      290.52047     -167.64903     -16817.207    
    473000   1.0912387      298.33785      131.25521     -16912.883    
    474000   1.0784199      297.93452      186.85908     -16769.066    
    475000   1.0847882      306.11874     -781.32726     -16743.301    
    476000   1.0837239      298.08854      445.62987     -16781.583    
    477000   1.0817195      303.4085       544.06196     -16762.86     
    478000   1.0829589      288.75431     -197.97326     -16809.27     
    479000   1.0908727      292.98133      527.18563     -16800.183    
    480000   1.0692096      296.54114     -304.3893      -16761.359    
    481000   1.086054       304.34228      427.3284      -16794.471    
    482000   1.0671055      295.77344     -409.95014     -16730.791    
    483000   1.0759412      289.88274      144.61288     -16854.966    
    484000   1.0852935      303.01212      220.12933     -16722.202    
    485000   1.0893796      298.95855      260.70728     -16845.906    
    486000   1.0800271      303.52658      424.16449     -16728.994    
    487000   1.0868154      296.12138      55.620506     -16830.01     
    488000   1.0842454      302.80494     -336.6417      -16758.47     
    489000   1.0730455      300.31334     -93.99567      -16730.991    
    490000   1.0726786      305.11741     -377.3028      -16762.9      
    491000   1.0895504      305.36792      967.8138      -16770.099    
    492000   1.0821661      305.84457     -144.5421      -16809.51     
    493000   1.0836097      310.89212      88.774232     -16700.937    
    494000   1.0759386      302.8095       342.88711     -16666.399    
    495000   1.0832491      292.30042      434.63039     -16869.621    
    496000   1.075123       297.28811     -331.76255     -16882.336    
    497000   1.0753459      297.32946      319.33386     -16788.456    
    498000   1.0884287      305.90327      308.02115     -16845.712    
    499000   1.0838236      285.59121      600.9483      -16907.543    
    500000   1.0836461      299.8784      -191.64323     -16787.074    
    501000   1.0720152      289.14968     -1244.6333     -16911.629    
    502000   1.0778751      300.71788      14.30674      -16752.845    
    503000   1.0694343      303.59719     -488.59537     -16717.584    
    504000   1.0824379      305.20637      8.8638717     -16805.333    
    505000   1.0699645      300.50064     -308.91742     -16694.041    
    506000   1.0879617      292.6789      -54.775404     -16876.68     
    507000   1.0801181      294.98165     -39.641041     -16796.907    
    508000   1.072083       300.90314     -463.22003     -16827.822    
    509000   1.0874294      288.90252      498.44505     -16944.805    
    510000   1.0679408      293.16652     -645.17354     -16869.353    
    511000   1.081063       299.81963      488.28292     -16846.773    
    512000   1.0751918      291.45559     -319.40231     -16834.909    
    513000   1.0842868      292.03991     -8.821466      -16819.361    
    514000   1.0754321      305.98073     -547.16833     -16680.351    
    515000   1.0761641      297.43146     -628.10822     -16706.464    
    516000   1.0669577      302.31164     -498.58625     -16689.972    
    517000   1.0750516      292.0079       568.26712     -16915.078    
    518000   1.0736748      307.02446      201.70619     -16686.099    
    519000   1.0808377      293.82064      67.792846     -16795.522    
    520000   1.0875108      301.7618       182.16216     -16871.69     
    521000   1.0777199      297.12871      8.9896954     -16864.936    
    522000   1.0746193      290.95808     -388.18509     -16770.449    
    523000   1.0706836      295.46377     -335.99743     -16787.857    
    524000   1.0880568      302.46596     -5.3509344     -16762.911    
    525000   1.0878556      287.50779      86.467203     -16849.08     
    526000   1.0713505      308.2959      -560.92321     -16697.833    
    527000   1.0791938      289.82775      342.18475     -16878.347    
    528000   1.075125       301.58719      181.83898     -16765.372    
    529000   1.0711476      298.51922     -106.82538     -16876.258    
    530000   1.0719546      301.51426     -189.27823     -16799.969    
    531000   1.0873604      304.94674      1009.9279     -16690.59     
    532000   1.0791678      307.68015      681.88109     -16681.259    
    533000   1.0683272      308.57692     -162.07611     -16657.8      
    534000   1.0764         292.01071      73.397912     -16836.29     
    535000   1.0956133      292.38819      456.70114     -16870.703    
    536000   1.0743447      297.9208       57.420111     -16816.507    
    537000   1.0770939      304.0769       389.39478     -16856.419    
    538000   1.0731053      300.84363     -387.22734     -16812.867    
    539000   1.0897376      299.3026      -579.786       -16872.035    
    540000   1.0666262      295.40556     -1214.0817     -16839.31     
    541000   1.0829628      310.32703      675.16405     -16785.535    
    542000   1.0692128      293.51053     -430.51505     -16846.229    
    543000   1.0841823      297.23517      341.60228     -16824.056    
    544000   1.0751069      303.92656     -283.05292     -16717.164    
    545000   1.0810737      298.7605       229.77598     -16795.552    
    546000   1.0909094      296.22506      670.31779     -16889.126    
    547000   1.080742       297.89129     -431.53271     -16855.059    
    548000   1.0802718      300.99577     -186.43881     -16818.591    
    549000   1.0716936      301.64639      230.3495      -16786.988    
    550000   1.0828632      299.92466      1023.2885     -16819.396    
    551000   1.0806644      303.45204      579.61418     -16767.606    
    552000   1.0769079      293.4859       592.0751      -16882.683    
    553000   1.0722579      299.44441     -403.8096      -16825.023    
    554000   1.0834959      292.70202      446.1983      -16847.199    
    555000   1.0759119      296.82134     -591.25948     -16888.111    
    556000   1.079098       303.74982      223.91238     -16778.879    
    557000   1.0799811      299.46185      31.185787     -16768.022    
    558000   1.0766935      304.90678     -67.57047      -16705.031    
    559000   1.0798021      296.50757      116.06148     -16818.204    
    560000   1.0751125      305.61497      20.560084     -16773.238    
    561000   1.0745889      294.60713     -510.74463     -16851.02     
    562000   1.07773        300.99686      178.78172     -16797.552    
    563000   1.0785836      295.20653     -294.31643     -16789.694    
    564000   1.0807681      300.86231      120.53372     -16809.365    
    565000   1.0776001      300.59076     -880.82814     -16772.956    
    566000   1.0790024      296.12875      206.86228     -16812.926    
    567000   1.0700759      300.23421     -236.88526     -16732.985    
    568000   1.0951523      294.05184      66.008879     -16864.879    
    569000   1.08264        304.38671      17.762427     -16722.808    
    570000   1.0656015      301.93761     -974.72445     -16804.473    
    571000   1.0870553      293.04972      386.19747     -16883.055    
    572000   1.070354       290.58361     -535.2904      -16836.478    
    573000   1.1019871      293.54528      57.994996     -16822.949    
    574000   1.0920255      294.51093     -791.20946     -16827.388    
    575000   1.0835603      297.60545     -92.195688     -16748.299    
    576000   1.0832678      305.27319     -291.60231     -16758.966    
    577000   1.0866934      296.27844      313.48847     -16801.894    
    578000   1.0905233      299.35047      840.03186     -16829.252    
    579000   1.0747135      304.60866     -715.26077     -16813.289    
    580000   1.0825219      299.30893     -554.33343     -16835.087    
    581000   1.0748072      293.43494     -435.74002     -16884.402    
    582000   1.0782586      300.6203       273.6998      -16834.7      
    583000   1.0665855      296.67183     -181.77        -16716.691    
    584000   1.088264       286.86355     -453.3457      -16903.019    
    585000   1.0865533      291.20599     -435.01723     -16856.48     
    586000   1.0782393      298.48967     -327.57308     -16763.321    
    587000   1.0801         299.75045     -78.417012     -16775.55     
    588000   1.082972       296.91741      652.12371     -16763.781    
    589000   1.0697064      300.34385      257.28285     -16763.932    
    590000   1.078824       296.05327     -94.613798     -16944.516    
    591000   1.0773982      300.32076      84.167617     -16890.583    
    592000   1.078797       294.39559      160.89256     -16875.627    
    593000   1.0884542      291.45038      854.53919     -16844.964    
    594000   1.0804294      303.39191     -762.18818     -16731.616    
    595000   1.0949882      287.28948      1042.0785     -16790.925    
    596000   1.0740795      290.19575     -614.88424     -16821.669    
    597000   1.0861355      288.33073      1134.4544     -16943.988    
    598000   1.066845       294.86052     -571.6446      -16833.71     
    599000   1.0822195      301.38195      823.36001     -16911.553    
    600000   1.07648        296.70806      78.371253     -16803.01     
    601000   1.086238       297.0898       358.89812     -16848.625    
    602000   1.0720217      293.05945     -157.31897     -16786.153    
    603000   1.0796803      303.92717     -413.25903     -16792.145    
    604000   1.0746523      304.21558      690.97974     -16877.185    
    605000   1.0809014      291.45158      146.22152     -16898.936    
    606000   1.0624229      303.5475      -645.37916     -16838.827    
    607000   1.0681356      303.81552      731.40133     -16844.792    
    608000   1.0710956      302.42563     -141.86477     -16824.17     
    609000   1.0615821      293.39472     -151.99239     -16850.488    
    610000   1.0760911      291.01345      206.12193     -16811.036    
    611000   1.0860009      290.3175       372.98246     -16855.667    
    612000   1.0722392      298.87085     -91.378031     -16842.307    
    613000   1.0905424      301.90822     -255.24271     -16727.576    
    614000   1.0881186      295.87085     -545.94108     -16747.165    
    615000   1.0855696      298.69799     -134.78889     -16749.857    
    616000   1.083396       303.29478     -612.5868      -16755.589    
    617000   1.091568       299.64478      432.29274     -16772.832    
    618000   1.084638       288.48227     -469.65229     -16921.09     
    619000   1.0795448      297.54385      421.47273     -16857.78     
    620000   1.0841755      290.30226      66.123561     -16871.49     
    621000   1.0786203      296.89295      316.26058     -16785.844    
    622000   1.0821905      299.89769     -492.13662     -16845.953    
    623000   1.0783359      298.9466      -1170.1158     -16842.004    
    624000   1.0848862      297.8903       562.64831     -16848.61     
    625000   1.0759858      299.17105      26.748403     -16836.773    
    626000   1.0813357      301.67592     -222.76879     -16809.991    
    627000   1.0784424      298.74449     -343.03276     -16692.707    
    628000   1.0802189      294.07635      786.67535     -16851.879    
    629000   1.0863322      296.81799      681.64729     -16811.211    
    630000   1.0839756      293.97476      82.442292     -16845.537    
    631000   1.0803593      301.18355     -669.07612     -16770.771    
    632000   1.0777705      290.24349     -89.016316     -16889.542    
    633000   1.0785265      294.03966     -5.3498059     -16876.602    
    634000   1.0701849      304.86055     -303.55238     -16688.95     
    635000   1.088276       292.44903      673.34764     -16846.221    
    636000   1.067533       298.48813      538.13882     -16806.303    
    637000   1.074083       308.85464     -156.03235     -16661.36     
    638000   1.0801595      299.19734     -144.91798     -16722.502    
    639000   1.0816952      309.9521       479.77702     -16764.994    
    640000   1.0891888      306.77737     -625.33365     -16791.923    
    641000   1.0940195      289.8921       612.16621     -16908.39     
    642000   1.0845484      288.30776     -152.22741     -16852.602    
    643000   1.0845455      305.38228      278.28215     -16811.701    
    644000   1.0856704      303.85101      495.98127     -16900.511    
    645000   1.0786071      294.101       -196.78312     -16922.244    
    646000   1.0803763      299.93457     -145.91891     -16757.306    
    647000   1.0807406      291.62763     -667.60766     -16755.652    
    648000   1.085176       287.07575     -305.15471     -16836.23     
    649000   1.0861135      295.329       -130.01665     -16832.046    
    650000   1.0914475      292.3457       750.65059     -16839.5      
    651000   1.0745844      299.23613     -237.20024     -16864.876    
    652000   1.0886116      292.41427      318.90044     -16858.836    
    653000   1.0850121      295.92673     -256.59218     -16787.714    
    654000   1.083565       287.31202     -1103.9315     -16813.662    
    655000   1.0895863      297.39039      52.348547     -16796.513    
    656000   1.0937083      294.28853     -556.87237     -16840.096    
    657000   1.084338       305.50818      0.58966624    -16744.386    
    658000   1.0867621      298.43408      227.8285      -16772.536    
    659000   1.0850401      307.76401     -626.83905     -16760.394    
    660000   1.0733076      293.35224     -451.924       -16918.647    
    661000   1.0738268      303.07673     -255.27924     -16806.296    
    662000   1.0778983      300.44701      120.77188     -16873.373    
    663000   1.084172       296.24721      419.78405     -16771.509    
    664000   1.075463       296.17551     -413.71625     -16847.674    
    665000   1.084028       301.938       -3.3882635     -16765.521    
    666000   1.0872704      298.56233      257.19375     -16743.924    
    667000   1.080632       294.96192     -341.32848     -16895.086    
    668000   1.0781537      294.45946     -9.114565      -16865.594    
    669000   1.0785144      295.90197      285.17156     -16830.262    
    670000   1.0690176      306.68152     -451.07952     -16746.41     
    671000   1.0828018      291.47929      279.98863     -16978.789    
    672000   1.08967        294.66477      73.913573     -16865.485    
    673000   1.0834649      302.07663      308.13959     -16785.066    
    674000   1.0836965      295.60526      74.284807     -16867.913    
    675000   1.0800118      301.73648     -270.01781     -16821.681    
    676000   1.0844818      291.06941     -212.71061     -16795.382    
    677000   1.0882687      299.35688     -520.66552     -16899.86     
    678000   1.0753308      299.66291     -292.1337      -16793.209    
    679000   1.07719        294.28249      122.68826     -16823.159    
    680000   1.0691851      300.13229      461.45584     -16830.657    
    681000   1.0819258      300.27473     -152.81806     -16844.777    
    682000   1.0704186      308.72734      323.29205     -16772.432    
    683000   1.0765925      299.84366      261.08477     -16806.31     
    684000   1.0803353      299.63033      298.66138     -16822.424    
    685000   1.060904       302.58042     -1052.0986     -16761.31     
    686000   1.0791013      294.27401     -374.55048     -16833.771    
    687000   1.0751582      301.79346      271.86861     -16822.994    
    688000   1.0786487      303.01286      249.86465     -16765.812    
    689000   1.0792913      308.84328      302.37299     -16657.981    
    690000   1.0706555      306.90053     -324.62542     -16653.431    
    691000   1.0796808      286.91196     -37.235588     -16850.992    
    692000   1.0715352      298.52853     -367.4692      -16645.961    
    693000   1.0805262      309.58879      233.58513     -16721.17     
    694000   1.0859425      299.0077       12.82355      -16851.885    
    695000   1.088112       296.78031      396.55105     -16799.821    
    696000   1.0807961      294.07509      166.1634      -16838.014    
    697000   1.0810616      292.27943     -72.313287     -16921.12     
    698000   1.0756081      304.40503     -260.6859      -16855.589    
    699000   1.0847915      301.13027     -86.771501     -16838.817    
    700000   1.0760018      296.9302      -319.49316     -16809.001    
    701000   1.0770195      295.39472      532.61028     -16801.884    
    702000   1.0862029      300.72725      482.21367     -16768.884    
    703000   1.0753665      290.07569     -33.320393     -16778.617    
    704000   1.0754524      303.66186     -624.1263      -16715.657    
    705000   1.0710936      295.2343       661.92774     -16824.087    
    706000   1.0785076      293.40483      204.9092      -16847.018    
    707000   1.0756776      298.74962     -240.06048     -16764.164    
    708000   1.0753886      291.1303      -606.92897     -16900.308    
    709000   1.079253       302.69276      350.24027     -16836.797    
    710000   1.0669626      296.61072     -826.46198     -16891.763    
    711000   1.0752135      286.44914     -243.30908     -16857.267    
    712000   1.0876884      302.90029     -331.73976     -16758.117    
    713000   1.0849943      284.65441     -127.80599     -16920.198    
    714000   1.074832       296.59462      457.05781     -16825.716    
    715000   1.0677149      286.41155     -224.31578     -16868.379    
    716000   1.0900464      294.0544       516.69055     -16927.12     
    717000   1.064715       305.53162     -83.677932     -16781.169    
    718000   1.0867802      301.04838      990.13253     -16846.667    
    719000   1.074521       303.13361     -327.2887      -16845.201    
    720000   1.0833402      293.02156     -384.99086     -16912.627    
    721000   1.0825777      296.4817       65.316218     -16810.92     
    722000   1.0763816      301.47294     -588.84312     -16750.751    
    723000   1.0896043      298.77888      762.31363     -16812.264    
    724000   1.0721565      294.86191     -970.44249     -16793.595    
    725000   1.0790342      296.10088     -136.27318     -16752.465    
    726000   1.0933667      298.38482      172.57648     -16750.829    
    727000   1.0873054      292.72819     -325.86948     -16740.093    
    728000   1.074761       294.55937     -213.80891     -16812.746    
    729000   1.0752703      296.8933       964.6172      -16909.622    
    730000   1.0698966      301.70682     -97.605976     -16837.964    
    731000   1.0820062      299.85597      212.16723     -16807.902    
    732000   1.0814771      298.46579      63.754267     -16789.438    
    733000   1.0765805      297.05851     -272.76311     -16831.165    
    734000   1.0627595      295.29304      308.52648     -16820.563    
    735000   1.0595813      296.05778     -281.00449     -16768.306    
    736000   1.0795515      291.5025       575.60101     -16784.124    
    737000   1.065107       292.57122     -1093.295      -16807.753    
    738000   1.0732336      294.59005     -346.74662     -16902.525    
    739000   1.0748045      298.49787      638.96946     -16835.466    
    740000   1.0769862      308.84102     -182.62847     -16809.22     
    741000   1.0864899      293.14334      334.18869     -16864.408    
    742000   1.0823488      290.60039      518.69452     -16815.176    
    743000   1.071254       301.30057     -66.42548      -16792.398    
    744000   1.0845511      294.70495      1109.9664     -16874.502    
    745000   1.0718243      296.42233     -328.73976     -16821.772    
    746000   1.08199        294.5937       446.62377     -16779.123    
    747000   1.0804567      288.33216     -163.3474      -16890.444    
    748000   1.0837162      290.51246      119.92112     -16801.306    
    749000   1.0896521      295.04725      70.765391     -16798.206    
    750000   1.0868562      303.1921      -342.57202     -16744.969    
    751000   1.0727189      294.14638     -397.36947     -16761.128    
    752000   1.0889587      296.44226     -11.657704     -16827.63     
    753000   1.0829756      301.60585     -734.36423     -16805.961    
    754000   1.0764252      296.65733      584.9914      -16837.833    
    755000   1.078762       296.57905      56.981383     -16814.296    
    756000   1.0775815      305.53569      453.87733     -16809.609    
    757000   1.0698121      295.23861     -318.43936     -16879.482    
    758000   1.0703877      302.34419     -300.92451     -16759.833    
    759000   1.0800757      300.11884      878.6737      -16725.103    
    760000   1.0832728      304.45904     -304.27202     -16799.468    
    761000   1.0790068      302.67314      354.22274     -16845.991    
    762000   1.0753982      313.2347       239.70207     -16718.995    
    763000   1.067247       293.06668     -120.45924     -16868.988    
    764000   1.0812648      307.07237      176.35691     -16804.133    
    765000   1.069912       292.84371      113.1105      -16851.291    
    766000   1.0635797      302.64886     -134.77211     -16727.991    
    767000   1.0870401      305.46058      529.2793      -16857.171    
    768000   1.0900354      301.15634      291.37432     -16755.756    
    769000   1.0819353      301.05691     -451.89232     -16703.696    
    770000   1.0837285      303.0026       190.48216     -16774.696    
    771000   1.0709771      298.9126      -1018.9103     -16790.452    
    772000   1.093434       295.84848      395.66274     -16941.61     
    773000   1.0819874      298.40643     -294.75326     -16801.087    
    774000   1.0830306      297.40457     -65.036352     -16866.148    
    775000   1.0731085      294.15431     -260.68407     -16834.404    
    776000   1.0872935      305.07298      1180.9562     -16761.264    
    777000   1.077171       308.39971      844.34401     -16753.605    
    778000   1.0591184      297.06633     -776.17419     -16828.224    
    779000   1.0795429      303.21623      404.47268     -16778.942    
    780000   1.0741313      293.78363      188.75456     -16801.481    
    781000   1.0725461      296.83881      135.3707      -16783.064    
    782000   1.0748762      294.22655      106.58656     -16873.193    
    783000   1.0670524      295.29308     -439.09126     -16738.668    
    784000   1.0827663      293.30352      644.28785     -16893.326    
    785000   1.0842722      308.68524      289.99321     -16814.601    
    786000   1.0898953      295.91243      73.496987     -16958.245    
    787000   1.0761448      291.66039     -97.026315     -16829.734    
    788000   1.0889853      296.73853      991.54123     -16823.172    
    789000   1.0698926      296.51551      29.964435     -16710.097    
    790000   1.0871817      294.09693      632.80776     -16799.787    
    791000   1.0847338      307.7942       447.7866      -16692.653    
    792000   1.0885173      303.76994      480.33199     -16767.414    
    793000   1.0716032      299.12985     -203.42848     -16838.031    
    794000   1.0821895      299.53731      627.2687      -16844.036    
    795000   1.0640941      305.35306     -36.14501      -16757.847    
    796000   1.0912448      291.21969      308.05116     -16837.043    
    797000   1.0738865      299.66172     -546.01008     -16691.033    
    798000   1.0843925      304.09307     -123.80494     -16700.507    
    799000   1.0921234      294.71607      595.25543     -16785.009    
    800000   1.054827       294.89913     -710.49739     -16822.479    
    801000   1.0724043      297.43576      66.598731     -16876.096    
    802000   1.0843696      295.55146      956.77302     -16804.43     
    803000   1.0745021      298.97509      107.63829     -16838.056    
    804000   1.074261       294.7439      -669.09337     -16812.81     
    805000   1.0842126      289.69722      336.68409     -16905.558    
    806000   1.0784701      295.08217     -629.94387     -16866.471    
    807000   1.0867863      305.03351      869.49209     -16719.418    
    808000   1.0781894      296.27666     -46.443078     -16822.282    
    809000   1.0855956      301.71698      626.68814     -16776.692    
    810000   1.0801077      300.21172     -46.940515     -16867.747    
    811000   1.0785108      303.95468      440.46023     -16772.75     
    812000   1.0839606      296.10974     -87.237323     -16762.256    
    813000   1.0834782      287.62124     -101.90373     -16917.496    
    814000   1.0729772      301.48676      715.2631      -16751.643    
    815000   1.0735995      286.92305     -305.76961     -16965.866    
    816000   1.081256       300.75543     -113.87948     -16799.088    
    817000   1.0859604      293.83368      400.85225     -16844.403    
    818000   1.0778452      297.52054      114.74258     -16819.235    
    819000   1.0868351      300.1324       371.23736     -16795.924    
    820000   1.066109       299.71422     -1047.5111     -16807.79     
    821000   1.0931388      292.97495      299.04873     -16815.806    
    822000   1.0841146      298.45419      472.81797     -16702.435    
    823000   1.0754055      298.27129     -486.32618     -16820.626    
    824000   1.081691       308.82533      354.17599     -16797.769    
    825000   1.0815008      289.52357     -4.2008809     -16817.827    
    826000   1.0911999      297.45084      161.45007     -16869.673    
    827000   1.0719014      291.81458     -730.07408     -16696.521    
    828000   1.0793111      290.10897      56.532284     -16858.144    
    829000   1.0642267      301.36182     -361.78011     -16717.234    
    830000   1.0929728      303.7893       601.08934     -16802.687    
    831000   1.0688777      297.80759     -966.32194     -16679.988    
    832000   1.0932069      291.9107       418.14515     -16854.824    
    833000   1.0798044      293.90234     -1587.9016     -16831.301    
    834000   1.098255       296.28499      98.132017     -16937.52     
    835000   1.0848473      302.12583     -143.79715     -16731.147    
    836000   1.0736133      300.29073     -641.77039     -16789.141    
    837000   1.0790277      301.74322     -128.24345     -16816.716    
    838000   1.0941568      302.49507      1190.1842     -16829.144    
    839000   1.0813265      303.21457     -325.7241      -16789.27     
    840000   1.0768329      295.00025     -413.34047     -16790.428    
    841000   1.0771633      294.47942     -221.40371     -16885.789    
    842000   1.0858093      303.20916      217.85673     -16783.171    
    843000   1.0771352      293.30702     -73.534954     -16731.148    
    844000   1.0906813      294.87396      666.31285     -16770.869    
    845000   1.0796204      296.31819     -417.014       -16743.041    
    846000   1.0929355      300.37483      859.85598     -16837.138    
    847000   1.0670189      286.05136     -185.03565     -16923.05     
    848000   1.087261       295.64129      674.60937     -16803.825    
    849000   1.0678063      298.81481      322.88602     -16797.503    
    850000   1.0702786      291.4061       1148.9828     -16823.434    
    851000   1.0556744      287.80579     -595.40018     -16843.475    
    852000   1.0824349      302.66646      943.66776     -16697.698    
    853000   1.072493       297.40071      494.6038      -16800.911    
    854000   1.0866831      294.9125       628.89198     -16818.502    
    855000   1.0856112      299.41743      443.28168     -16828.33     
    856000   1.0784225      298.28389      564.5533      -16756.727    
    857000   1.0779444      296.86707      184.09238     -16759.89     
    858000   1.0798268      305.42772      527.18697     -16751.353    
    859000   1.0868234      299.8454      -446.16653     -16830.469    
    860000   1.0826452      305.64238      328.79481     -16710.18     
    861000   1.0879352      292.99421      886.85429     -16865.785    
    862000   1.0717123      298.99719     -837.03225     -16842.018    
    863000   1.0890348      294.28998      528.02096     -16794.873    
    864000   1.0748739      290.51472     -460.31309     -16950.535    
    865000   1.0668779      295.18095     -429.81577     -16831.073    
    866000   1.0756846      299.79376      65.557585     -16838.907    
    867000   1.0738854      300.05977     -316.62542     -16730.82     
    868000   1.0758491      296.56088     -249.79269     -16861.534    
    869000   1.077779       311.3285      -402.39508     -16760.587    
    870000   1.0791318      302.20384      396.33393     -16831.844    
    871000   1.0797175      301.34698      350.79492     -16755.243    
    872000   1.0790682      297.79306     -90.527318     -16820.852    
    873000   1.0693146      300.36193     -530.86215     -16849.196    
    874000   1.0863893      293.81287      359.66493     -16851.63     
    875000   1.0911742      301.77619     -181.82874     -16688.056    
    876000   1.0868742      291.92698      203.09403     -16728.355    
    877000   1.0808509      301.00419     -482.45132     -16735.43     
    878000   1.0691957      303.93572     -513.21476     -16766.019    
    879000   1.0788684      282.62135      421.289       -16982.81     
    880000   1.0788637      296.25762      625.6669      -16841.253    
    881000   1.0715324      296.72322      95.025969     -16876.722    
    882000   1.0842243      300.688        633.61902     -16826.872    
    883000   1.0679696      301.5781      -485.07323     -16812.891    
    884000   1.0832966      293.69544      345.17437     -16867.603    
    885000   1.0801174      300.37647     -16.303554     -16825.61     
[...]
   9745000   1.0739166      306.30024     -353.78685     -16753.793    
   9746000   1.0802718      300.29443     -827.89082     -16821.944    
   9747000   1.0931164      288.27462     -282.52465     -16860.924    
   9748000   1.0700395      302.97389     -1006.2249     -16692.529    
   9749000   1.0856732      297.18224      126.15899     -16846.159    
   9750000   1.0739604      301.56802     -948.22763     -16750.226    
   9751000   1.080995       303.61939     -157.63109     -16786.469    
   9752000   1.0731262      294.49919     -68.967128     -16824.55     
   9753000   1.0717522      298.00948     -8.0467559     -16781.697    
   9754000   1.0828228      298.46792     -545.76978     -16889.451    
   9755000   1.0845081      304.30703      793.71569     -16712.804    
   9756000   1.0819637      294.69941      776.35608     -16843.376    
   9757000   1.0759109      297.0666       181.38087     -16727.157    
   9758000   1.087842       292.18986      477.24244     -16776.685    
   9759000   1.0782662      295.15654     -417.59376     -16841.174    
   9760000   1.0901139      303.10866     -832.12177     -16812.621    
   9761000   1.0878439      296.42087      231.43698     -16864.827    
   9762000   1.0828551      294.21894      1221.704      -16843.77     
   9763000   1.0783662      297.86358     -35.692091     -16803.69     
   9764000   1.0730838      289.61932     -168.21801     -16887.563    
   9765000   1.08271        296.18197     -146.69521     -16880.694    
   9766000   1.0819262      301.98211     -255.17928     -16803.338    
   9767000   1.0918676      299.04275     -127.0501      -16801.731    
   9768000   1.069366       291.86314      179.69601     -16867.426    
   9769000   1.0689278      301.72812     -367.37288     -16769.05     
   9770000   1.0836519      302.90791     -112.90867     -16789.333    
   9771000   1.0782563      301.8354      -590.8454      -16821.93     
   9772000   1.0869901      297.7018       606.28839     -16825.537    
   9773000   1.083629       308.76446      249.18366     -16756.663    
   9774000   1.0769539      289.75606     -363.57171     -16903.266    
   9775000   1.072342       297.28133     -342.5033      -16794.934    
   9776000   1.087896       296.31815     -350.14394     -16817.651    
   9777000   1.0832858      308.70805     -240.57499     -16691.024    
   9778000   1.081298       296.74029      251.91761     -16786.154    
   9779000   1.0745273      290.86608      578.58503     -16874.058    
   9780000   1.0739212      289.82615      365.97167     -16869.126    
   9781000   1.080306       306.94025      482.84201     -16759.864    
   9782000   1.0782842      296.80738     -199.91664     -16779.851    
   9783000   1.0834247      297.41884     -389.8096      -16852.191    
   9784000   1.0821155      295.6368      -113.1515      -16925.308    
   9785000   1.089433       295.81184      757.09888     -16840.45     
   9786000   1.0703394      303.12191     -352.3428      -16742.555    
   9787000   1.0811349      304.64253      501.36798     -16816.882    
   9788000   1.0853259      301.53852      57.067544     -16759.163    
   9789000   1.0800686      305.10077     -343.0139      -16680.347    
   9790000   1.0996433      295.11376      201.23281     -16808.439    
   9791000   1.0875421      290.98798      237.58416     -16690.732    
   9792000   1.0931008      306.81315      631.72419     -16655.233    
   9793000   1.0860428      298.63954     -682.47929     -16796.292    
   9794000   1.0901321      296.40594      433.03326     -16901.2      
   9795000   1.0908678      304.46139     -268.98074     -16855.968    
   9796000   1.0858586      297.43177     -225.74556     -16875.595    
   9797000   1.0683984      300.62667      186.33529     -16756.46     
   9798000   1.0767051      295.79237     -311.25512     -16856.614    
   9799000   1.0812753      290.87562     -610.63068     -16905.327    
   9800000   1.075309       301.96381     -314.54061     -16835.431    
   9801000   1.0774028      296.20595      184.23362     -16796.602    
   9802000   1.0778306      293.9237      -738.2317      -16915.421    
   9803000   1.0704296      298.88201      183.00143     -16780.324    
   9804000   1.0720934      301.74851      981.49378     -16823.524    
   9805000   1.0727832      293.95214     -139.42316     -16778.507    
   9806000   1.0856049      298.54094      439.30758     -16959.449    
   9807000   1.0791878      299.96954     -352.79337     -16766.542    
   9808000   1.078512       293.76462      103.14929     -16789.464    
   9809000   1.0694504      292.63867     -346.73215     -16760.363    
   9810000   1.0757505      299.26088      898.26662     -16741.838    
   9811000   1.079865       295.30463      33.155391     -16823.169    
   9812000   1.0581006      303.83497     -256.80219     -16704.982    
   9813000   1.0793769      290.8888      -82.088933     -16836.477    
   9814000   1.0878528      304.33305      222.17534     -16747.088    
   9815000   1.0787374      292.93017     -207.36468     -16871.803    
   9816000   1.0722786      296.49938      69.004448     -16833.586    
   9817000   1.0672712      303.57788      99.943025     -16779.706    
   9818000   1.0745806      299.90122     -182.18672     -16825.809    
   9819000   1.0740151      294.19316     -596.05564     -16826.122    
   9820000   1.0803412      296.09126     -317.70687     -16845.284    
   9821000   1.0755231      304.06315      42.806427     -16804.431    
   9822000   1.0668707      299.5664      -1053.5376     -16753.619    
   9823000   1.0811878      298.31801      497.06871     -16699.024    
   9824000   1.0719089      298.61998      625.73912     -16765.174    
   9825000   1.0713312      297.29192     -28.901582     -16897.813    
   9826000   1.0749123      296.1202       72.968877     -16791.377    
   9827000   1.0858166      301.55256      888.96899     -16826.163    
   9828000   1.0599155      312.1541      -540.02592     -16660.017    
   9829000   1.0883249      296.85748      971.04262     -16854.611    
   9830000   1.06555        307.71619     -556.09406     -16671.616    
   9831000   1.080976       293.9419       764.96438     -16717.1      
   9832000   1.0670131      292.30078     -724.97744     -16807.399    
   9833000   1.0732566      300.86938      354.33055     -16755.33     
   9834000   1.076159       295.22808     -885.33752     -16793.694    
   9835000   1.0707057      306.54192     -922.51872     -16774.032    
   9836000   1.0767508      298.40098     -31.158943     -16739.186    
   9837000   1.0716744      300.16947      22.160511     -16733.673    
   9838000   1.077789       287.07604     -222.4266      -16925.674    
   9839000   1.0818513      294.31029     -498.33555     -16887.966    
   9840000   1.0761256      298.9798       598.65701     -16810.41     
   9841000   1.0797593      297.67403     -375.63546     -16799.067    
   9842000   1.0868326      305.87237     -324.93619     -16791.586    
   9843000   1.0835706      296.61197     -576.48779     -16877.531    
   9844000   1.0876985      292.91157      44.573589     -16911.631    
   9845000   1.0693119      297.41942      587.3485      -16815.702    
   9846000   1.0808986      303.75112      188.87357     -16858.164    
   9847000   1.0710977      301.53658      1099.2759     -16816.104    
   9848000   1.059284       295.76798     -703.47688     -16929.514    
   9849000   1.0712751      299.78552     -305.08783     -16738.419    
   9850000   1.076018       304.09886      680.58942     -16824.232    
   9851000   1.0694673      309.9811       130.74428     -16748.651    
   9852000   1.0789592      297.17753      229.21011     -16842.493    
   9853000   1.0768713      292.18051     -685.73202     -16847.871    
   9854000   1.0839324      289.17385      10.497663     -16804.528    
   9855000   1.0775773      292.17138      94.960052     -16872.825    
   9856000   1.0779618      302.9903      -228.81482     -16779.646    
   9857000   1.095671       288.4432       953.22275     -16861.854    
   9858000   1.0702889      301.72        -182.89289     -16801.439    
   9859000   1.084456       298.71457      153.05001     -16766.094    
   9860000   1.0723099      295.08819      423.83484     -16783.575    
   9861000   1.0841533      292.09555     -444.15356     -16899.478    
   9862000   1.0796526      307.40821     -187.18665     -16765.336    
   9863000   1.0773899      302.38199     -74.914984     -16710.836    
   9864000   1.0708594      286.71682     -977.75366     -16861.014    
   9865000   1.0821585      300.68601     -528.76729     -16770.567    
   9866000   1.0948386      298.3121       732.72435     -16852.562    
   9867000   1.0717688      296.11993      75.262653     -16799.366    
   9868000   1.0582842      298.94547     -129.54029     -16738.033    
   9869000   1.0773997      297.9077       2.1011603     -16801.831    
   9870000   1.0682227      300.01653     -589.43068     -16824.371    
   9871000   1.0891136      303.73645     -49.707244     -16794.885    
   9872000   1.0884485      295.60861     -259.26514     -16881.777    
   9873000   1.0766526      291.81624     -482.14459     -16889.146    
   9874000   1.0857032      301.19652     -190.34046     -16818.182    
   9875000   1.0791855      296.63367      155.97945     -16846.649    
   9876000   1.0914705      299.94472      833.88519     -16799.009    
   9877000   1.0713582      295.41335     -140.60375     -16791.731    
   9878000   1.0910264      297.94556     -50.705837     -16931.866    
   9879000   1.0789625      296.30531     -279.36851     -16756.946    
   9880000   1.0992331      288.65097     -157.43878     -16855.759    
   9881000   1.0769962      288.87026     -216.63336     -16753.965    
   9882000   1.0767879      295.15493     -59.522471     -16796.746    
   9883000   1.0799726      298.18017     -523.79446     -16792.069    
   9884000   1.083957       297.48176      56.366106     -16886.428    
   9885000   1.0773504      293.73937      794.90882     -16839.056    
   9886000   1.0885326      293.26645      331.45064     -16844.881    
   9887000   1.084073       300.65215      34.981255     -16863.207    
   9888000   1.0872544      303.0064      -41.953683     -16825.35     
   9889000   1.0791892      294.17669      78.73119      -16858.779    
   9890000   1.0870683      299.15871      1190.9853     -16746.963    
   9891000   1.083229       302.78996     -8.4615496     -16834.319    
   9892000   1.0866919      303.71385     -360.93566     -16699.618    
   9893000   1.0803582      297.35975     -495.66894     -16837.838    
   9894000   1.0858632      291.19354      578.86996     -16838.22     
   9895000   1.0710204      296.65578     -981.08015     -16836.646    
   9896000   1.0783788      298.65099     -12.550378     -16827.941    
   9897000   1.0764738      300.00729      451.71682     -16834.714    
   9898000   1.0833936      295.964        75.306945     -16857.145    
   9899000   1.0693804      299.00106     -375.29382     -16798.552    
   9900000   1.1000012      295.40074      1129.075      -16866.471    
   9901000   1.0726613      301.64182      75.86997      -16846.353    
   9902000   1.0821119      293.01098      835.77639     -16824.27     
   9903000   1.0738705      290.4112      -319.704       -16926.818    
   9904000   1.0865768      292.19367      778.45533     -16870.612    
   9905000   1.0850572      296.22241     -149.53722     -16843.018    
   9906000   1.0885084      296.4851       169.98063     -16864.805    
   9907000   1.0884353      295.13557      675.38654     -16851.017    
   9908000   1.0796583      293.00714     -149.51786     -16836.267    
   9909000   1.0896654      296.27966      534.76912     -16748.045    
   9910000   1.0833923      298.95716      291.39417     -16809.717    
   9911000   1.0797906      303.25565     -23.439375     -16628.029    
   9912000   1.0924652      295.47726      699.65152     -16842.578    
   9913000   1.0890289      298.51727      89.502691     -16761.048    
   9914000   1.0858423      293.00104      96.398969     -16749.346    
   9915000   1.0715606      302.07975     -637.14075     -16758.008    
   9916000   1.0732439      291.59098     -244.71673     -16841.597    
   9917000   1.0681011      298.34917     -140.00608     -16724.983    
   9918000   1.0761152      294.85654     -235.48413     -16877.884    
   9919000   1.087404       291.4968       773.71502     -16904.509    
   9920000   1.0943735      290.68844     -65.343035     -16822.565    
   9921000   1.0822083      301.0711       264.97267     -16708.759    
   9922000   1.0795341      301.16594      262.63575     -16767.839    
   9923000   1.0886651      305.9129       458.16551     -16812.136    
   9924000   1.0833699      296.08886      55.528786     -16829.975    
   9925000   1.083293       300.9464      -368.00222     -16841.95     
   9926000   1.0812143      301.63581     -604.78855     -16830.076    
   9927000   1.0917951      304.87179     -230.29747     -16827.474    
   9928000   1.0712086      294.77246      369.54382     -16813.615    
   9929000   1.0668481      305.98214      290.52797     -16652.143    
   9930000   1.0789203      297.72147     -308.99449     -16800.182    
   9931000   1.0789227      304.25917     -45.836721     -16729.84     
   9932000   1.0846732      301.82535      144.49564     -16748.612    
   9933000   1.0632116      302.70155     -830.8003      -16729.498    
   9934000   1.0864468      304.65897      1600.4384     -16737.093    
   9935000   1.071518       291.37248      124.80506     -16842.587    
   9936000   1.0958575      304.96712      257.5412      -16844.877    
   9937000   1.0772771      295.87198     -313.24411     -16769.801    
   9938000   1.0773578      298.359       -252.43273     -16872.047    
   9939000   1.0892191      300.67876      693.01231     -16820.967    
   9940000   1.0798392      291.18269      576.64014     -16877.341    
   9941000   1.0879329      296.58228     -98.245839     -16862.057    
   9942000   1.0860526      289.71238      635.39601     -16763.479    
   9943000   1.0677407      293.40113      160.11272     -16762.613    
   9944000   1.0736737      294.28582      377.15623     -16798.379    
   9945000   1.0814222      297.80807      137.13323     -16886.352    
   9946000   1.0784729      297.41427     -219.10033     -16871.175    
   9947000   1.0748944      299.87457      479.73488     -16782.862    
   9948000   1.0925055      298.45339      648.38532     -16756.978    
   9949000   1.0811493      290.181       -77.284504     -16752.47     
   9950000   1.084594       299.86548      583.20365     -16810.297    
   9951000   1.0684933      299.8984       648.14509     -16725.232    
   9952000   1.0854367      292.84994      301.24325     -16824.984    
   9953000   1.0767882      295.16026     -202.17028     -16738.855    
   9954000   1.0898395      302.97512      957.78242     -16803.249    
   9955000   1.0638846      302.11235     -685.78066     -16784.064    
   9956000   1.0794752      280.41237     -362.6824      -16969.952    
   9957000   1.073177       306.20227     -50.89961      -16787.645    
   9958000   1.074829       290.61445      131.45666     -16825.44     
   9959000   1.0774166      298.81167     -165.08758     -16829.373    
   9960000   1.0748939      289.49666     -221.29709     -16877.272    
   9961000   1.0873372      309.50628      519.64626     -16868.675    
   9962000   1.0848359      300.42697     -276.93166     -16786.236    
   9963000   1.0771823      306.96949     -369.42667     -16726.243    
   9964000   1.0726811      293.89416     -1125.8121     -16902.673    
   9965000   1.0838653      295.86429     -281.35847     -16855.84     
   9966000   1.0702547      296.0022      -59.828699     -16856.131    
   9967000   1.0838678      302.15479      169.14836     -16760.416    
   9968000   1.0816243      301.73472      348.26835     -16745.049    
   9969000   1.0833357      300.6469       10.286786     -16810.641    
   9970000   1.0837644      291.98804     -57.452669     -16833.036    
   9971000   1.0691923      291.78718      124.54536     -16753.855    
   9972000   1.0762959      294.81869      378.16873     -16868.468    
   9973000   1.0696611      295.75154     -876.75308     -16886.211    
   9974000   1.0848232      288.57742      30.946243     -16933.195    
   9975000   1.0743161      295.60843     -381.169       -16865.994    
   9976000   1.0731459      304.12405      15.685824     -16714.3      
   9977000   1.0770872      291.58771     -414.45814     -16809.06     
   9978000   1.0904263      305.89725     -51.394896     -16729.773    
   9979000   1.0762397      290.41069      37.598334     -16894.685    
   9980000   1.0763256      297.40539      848.80581     -16827.29     
   9981000   1.079498       291.78465     -376.04489     -16855.986    
   9982000   1.0775235      298.68931      729.11166     -16797.043    
   9983000   1.0707263      296.42235     -674.3721      -16821.028    
   9984000   1.0773161      295.89754     -154.28863     -16792.781    
   9985000   1.0677283      294.57823      161.13647     -16820.777    
   9986000   1.0677177      300.19948      123.26379     -16766.892    
   9987000   1.0846679      290.26346      886.10531     -16870.334    
   9988000   1.074622       301.1324      -87.527669     -16806.231    
   9989000   1.0771082      293.40845     -707.16265     -16834.672    
   9990000   1.0644094      303.50113     -397.15365     -16710.714    
   9991000   1.0698754      293.83628     -315.80219     -16857.594    
   9992000   1.0746739      301.48679     -247.66675     -16701.516    
   9993000   1.0669784      299.65467     -224.40259     -16910.068    
   9994000   1.0813372      304.26982      464.88231     -16805.044    
   9995000   1.0878848      291.09973     -200.53645     -16941.843    
   9996000   1.0741469      293.80451     -542.73309     -16734.146    
   9997000   1.0802994      303.4031      -412.05416     -16842.34     
   9998000   1.0838713      306.60308     -317.89629     -16747.966    
   9999000   1.0814065      298.69671      461.57431     -16839.537    
  10000000   1.0635867      299.99469     -536.5567      -16747.516    
Loop time of 31866.3 on 32 procs for 10000000 steps with 3162 atoms

Performance: 27.113 ns/day, 0.885 hours/ns, 313.811 timesteps/s
99.5% CPU use with 32 MPI tasks x no OpenMP threads

MPI task timing breakdown:
Section |  min time  |  avg time  |  max time  |%varavg| %total
---------------------------------------------------------------
Pair    | 11214      | 12069      | 12852      | 434.7 | 37.88
Bond    | 38.271     | 41.627     | 46.8       |  38.5 |  0.13
Kspace  | 6721.5     | 7566.1     | 8354.6     | 527.6 | 23.74
Neigh   | 1446.3     | 1515.7     | 1652.8     | 202.4 |  4.76
Comm    | 1730       | 2008.8     | 2241.6     | 363.0 |  6.30
Output  | 0.65899    | 1.8034     | 36.893     | 469.3 |  0.01
Modify  | 7935       | 8257.4     | 8489.8     | 175.3 | 25.91
Other   |            | 405.5      |            |       |  1.27

Nlocal:        98.8125 ave         112 max          78 min
Histogram: 1 0 0 1 2 9 10 6 2 1
Nghost:        4212.78 ave        4251 max        4181 min
Histogram: 3 1 2 10 4 3 2 3 3 1
Neighs:        39055.2 ave       45964 max       28371 min
Histogram: 1 0 0 3 6 6 5 5 3 3

Total # of neighbors = 1249767
Ave neighs/atom = 395.24573
Ave special neighs/atom = 2.0341556
Neighbor list builds = 1210587
Dangerous builds = 0
ERROR: Cannot reset timestep with active dump - must undump first (../output.cpp:637)
Last command: reset_timestep 0
srun: error: cmp017: tasks 0-12: Exited with exit code 1
srun: launch/slurm: _step_signal: Terminating StepId=2016064.0
srun: error: cmp190: tasks 13-31: Exited with exit code 1
