LAMMPS (23 Jun 2022 - Update 1)
####################################################
# Preprocessing Li2SO4 in water
# 1m 298 K and 1 atm
#################### SETTING UP ####################
units real
dimension 3
newton on
boundary p p p
atom_style full

#################### VARIABLES ####################
variable Temp equal 298.15    # Temperature in K
variable Pres equal 1.0       # Pressure in atm.

variable RandomSeed equal 18 # The random seed for velocity
variable tstep equal 2.0      # 1fs
variable Ninptpre equal 10000 # Pre-initialize the NPT ensemble (very small timesteps)
variable Ninpt equal 10000000  # Initialize the NPT ensemble
variable Npnpt equal 10000000  # Production in the NPT ensemble (volume)
variable Ninvtpre equal 10000 # Pre-initialize the NVT ensemble (very small timesteps)
variable Ninvt equal 500000   # Initialize the NVT ensemble
variable Nrun equal 50000     # production in the NVT ensemble (Transport properties) 1ns
variable Nf equal 1000         # Nfreq (fix ave/time and thermo)
variable Ne equal  1         # Nevery (fix ave/time)
variable Nr equal ${Nf}/${Ne} # Nrepeat (fix ave/time)
variable Nr equal 1000/${Ne} 
variable Nr equal 1000/1 
variable NBR equal ${Npnpt}/100 # Block averaging for density (NPT)
variable NBR equal 10000000/100 
variable Nd equal ${Nrun}/10 # Frequency of outputting positions of atoms in the NVT ensemble
variable Nd equal 50000/10 

variable nb equal 10          # Number of blocks (fix ordern)
variable nbe equal 20         # Number of block elements (fix ordern)
variable Nvisc equal 5        # Nevery for viscosity (fix ordern: sample data at (Nvisc*2))
variable Ncond equal 5        # Nevery for Tconductivity (fix ordern: sample data at (Ncond*2))
variable Ndiff equal 1000     # Nevery for diffusivity (fix ordern: sample data at (Ndiff))
variable Nwrit equal 100000   # Nwrite for transport properties (fix ordern: write every (Nwrit))

variable Nrdfe equal 1000     # Nevery for RDF (fix ave/time)
variable Nrdfw equal 1000     # Nwrite for RDF (compute rdf/ext: write every (Nrdfw*Nrdfe))
variable binnum equal 2000    # Number of bins for RDF

#################### ATOM DEFINITION and FORCEFIELD ####################
read_data ./data.lmp                     # read the positions
Reading data file ...
  orthogonal box = (0 0 0) to (31.689281 31.689281 31.689281)
  3 by 2 by 4 MPI processor grid
  reading atoms ...
  3162 atoms
  scanning bonds ...
  4 = max bonds/atom
  scanning angles ...
  6 = max angles/atom
  reading bonds ...
  2108 bonds
  reading angles ...
  1108 angles
Finding 1-2 1-3 1-4 neighbors ...
  special bond factors lj:    0        0        0       
  special bond factors coul:  0        0        0       
     4 = max # of 1-2 neighbors
     3 = max # of 1-3 neighbors
     3 = max # of 1-4 neighbors
     4 = max # of special neighbors
  special bonds CPU = 0.001 seconds
  read_data CPU = 0.018 seconds
include ./forcefield.data                # read the force field
#--------INTERMOLECULAR POTENTIAL -------------------#
# ---------------Developed for Li2SO4 in water (tip4p/2005) system-----#

mass 1 15.9994 # Ow
mass 2 1.008 # Hw
mass 3 6.891  # Li  -0.01, which went to ghost
mass 4 0.05 # m ghost of lithium
mass 5 0.5 # S  Center site without weight
mass 6 23.89065 # Os (added sulfur weight)


pair_style lj/cut/tip4p/long 1 2 1 1 0.1546 10.0
kspace_style pppm/tip4p 1.0e-5
pair_modify mix arithmetic tail yes # ATC and Lorentz-Berthelot combining rules

#-----------------Combinations----------------------------
# atomtype atomtype epsilon sigma

pair_coeff 1 1 0.185200 3.1589     # Ow-Ow
pair_coeff 1 2 0.000000 0.0000     # Ow-Hw
pair_coeff 1 3 0.167459 2.12       # Ow-Li
pair_coeff 1 4 0.000000 0.0000     # Ow-m
pair_coeff 1 5 0.215246 3.35445    # Ow-S  COMPUTE BY HAND LB mix
pair_coeff 1 6 0.150335 3.40445    # Ow-Os

pair_coeff 2 2 0.000000 0.0000     # Hw-Hw
pair_coeff 2 3 0.000000 0.0000     # Hw-Li
pair_coeff 2 4 0.000000 0.0000     # Hw-m
pair_coeff 2 5 0.000000 0.0000     # Hw-S
pair_coeff 2 6 0.000000 0.0000     # Hw-Os

pair_coeff 3 3 0.103989 1.4397     # Li-Li
pair_coeff 3 4 0.000000 0.0000     # Li-m
pair_coeff 3 5 0.161291 2.49485    # Li-S   COMPUTE BY HAND LB mix
pair_coeff 3 6 0.192067 2.844850   # Li-Os

pair_coeff 4 4 0.000000 0.0000     # m-m
pair_coeff 4 5 0.000000 0.0000     # m-S
pair_coeff 4 6 0.000000 0.0000     # m-Os

pair_coeff 5 5 0.250167 3.5500     # S-S
pair_coeff 5 6 0.223762 3.6000     # S-Os  CHECK BY HAND LB mix

pair_coeff 6 6 0.200143 3.6500     # Os-Os

bond_style  harmonic
bond_coeff 1 2000 0.9572           # Ow-Hw
bond_coeff 2 1000 0.5		   # Li-m
bond_coeff 3 1000 1.490		   # S-Os

angle_style harmonic
angle_coeff 1 200 104.52           # H-Ow-H
angle_coeff 2 200 109.5           # Os-S-Os

#dihedral_style none
#improper_style none

set type 1 charge -1.1128          # O
Setting atom values ...
  1000 settings made for charge
set type 2 charge +0.5564          # OH
Setting atom values ...
  2000 settings made for charge
set type 3 charge +0.8500          # Li
Setting atom values ...
  36 settings made for charge
set type 4 charge 0		   # m
Setting atom values ...
  36 settings made for charge
set type 5 charge +0.9000          # S
Setting atom values ...
  18 settings made for charge
set type 6 charge -0.6500          # Os
Setting atom values ...
  72 settings made for charge


#################### INITIALIZATION ####################
# groups for the central atoms of water (O)

group wat type 1		# O water
1000 atoms in group wat
group Li type 3			# Lithium atom
36 atoms in group Li
group S type 5			# S sulfite group centre
18 atoms in group S

# neigbor lists
neighbor 2.0 bin
neigh_modify every 1 delay 0 check yes

# velocity-Verlet integrator
run_style verlet

# initializing velocities
velocity all create ${Temp} ${RandomSeed}
velocity all create 298.15 ${RandomSeed}
velocity all create 298.15 18

# rate of writing thermal properties to the log file
thermo_style custom step density temp press etotal
thermo_modify flush yes
thermo ${Nf}
thermo 1000

#################### 2) Initialize the NPT ensemble ####################
######### Go to the correct temperature now ant initiate that ##########
fix integrate all rigid/npt/small molecule temp ${Temp} ${Temp} 10.0 iso ${Pres} ${Pres} 100.0
fix integrate all rigid/npt/small molecule temp 298.15 ${Temp} 10.0 iso ${Pres} ${Pres} 100.0
fix integrate all rigid/npt/small molecule temp 298.15 298.15 10.0 iso ${Pres} ${Pres} 100.0
fix integrate all rigid/npt/small molecule temp 298.15 298.15 10.0 iso 1 ${Pres} 100.0
fix integrate all rigid/npt/small molecule temp 298.15 298.15 10.0 iso 1 1 100.0
  create bodies CPU = 0.000 seconds
  1054 rigid bodies with 3162 atoms
  1.4900082 = max distance from body owner to body atom

# add dump trajectory

# Initializing the whole system with very small timesteps in the NPT ensemble
timestep 0.001
run ${Ninptpre}
run 10000
PPPM initialization ...
  extracting TIP4P info from pair style
  using 12-bit tables for long-range coulomb (../kspace.cpp:342)
  G vector (1/distance) = 0.31119582
  grid = 30 30 30
  stencil order = 5
  estimated absolute RMS force accuracy = 0.0035544154
  estimated relative force accuracy = 1.0704016e-05
  using double precision KISS FFT
  3d grid and FFT values/proc = 5610 1800
Generated 0 of 15 mixed pair_coeff terms from arithmetic mixing rule
Neighbor list info ...
  update every 1 steps, delay 0 steps, check yes
  max neighbors/atom: 2000, page size: 100000
  master list distance cutoff = 12.3092
  ghost atom cutoff = 12.3092
  binsize = 6.1546, bins = 6 6 6
  1 neighbor lists, perpetual/occasional/extra = 1 0 0
  (1) pair lj/cut/tip4p/long, perpetual
      attributes: half, newton on
      pair build: half/bin/newton
      stencil: half/bin/3d
      bin: standard
Per MPI rank memory allocation (min/avg/max) = 15.57 | 15.61 | 15.64 Mbytes
   Step        Density          Temp          Press          TotEng    
         0   1.0433267      299.91361      7878955.1      5958.2021    
      1000   1.0424552      320.05516      72976.232      5929.3009    
      2000   1.0401673      376.03611      70157.554      5851.636     
      3000   1.0365251      463.19411      65322.279      5718.6762    
      4000   1.0316347      573.1601       58360.675      5515.1051    
      5000   1.0256473      698.17301      50097.037      5240.7479    
      6000   1.0187418      832.33321      42771.218      4911.0321    
      7000   1.0110888      966.52906      35764.305      4522.9772    
      8000   1.0028584      1093.4549      27906.883      4083.2572    
      9000   0.99423291     1205.444       21165.708      3592.0759    
     10000   0.98537864     1298.3483      15210.554      3063.9592    
Loop time of 36.3667 on 24 procs for 10000 steps with 3162 atoms

Performance: 0.024 ns/day, 1010.186 hours/ns, 274.977 timesteps/s
99.4% CPU use with 24 MPI tasks x no OpenMP threads

MPI task timing breakdown:
Section |  min time  |  avg time  |  max time  |%varavg| %total
---------------------------------------------------------------
Pair    | 12.523     | 15.307     | 17.841     |  33.4 | 42.09
Bond    | 0.051799   | 0.059547   | 0.066025   |   1.6 |  0.16
Kspace  | 7.2498     | 9.7565     | 12.406     |  42.4 | 26.83
Neigh   | 0.0029698  | 0.0031657  | 0.0033545  |   0.3 |  0.01
Comm    | 1.5196     | 1.7565     | 2.0146     |  12.7 |  4.83
Output  | 0.00054519 | 0.00058844 | 0.0013534  |   0.0 |  0.00
Modify  | 7.7955     | 8.2405     | 9.2112     |  18.3 | 22.66
Other   |            | 1.243      |            |       |  3.42

Nlocal:         131.75 ave         144 max         118 min
Histogram: 2 1 2 2 3 5 3 1 2 3
Nghost:        4305.42 ave        4410 max        4144 min
Histogram: 4 4 0 0 0 0 0 2 8 6
Neighs:          48550 ave       56242 max       41391 min
Histogram: 2 1 2 5 2 4 3 3 0 2

Total # of neighbors = 1165201
Ave neighs/atom = 368.50127
Ave special neighs/atom = 2.0341556
Neighbor list builds = 2
Dangerous builds = 0
timestep 0.01
run ${Ninptpre}
run 10000
PPPM initialization ...
  extracting TIP4P info from pair style
  using 12-bit tables for long-range coulomb (../kspace.cpp:342)
  G vector (1/distance) = 0.30982324
  grid = 30 30 30
  stencil order = 5
  estimated absolute RMS force accuracy = 0.0037619287
  estimated relative force accuracy = 1.1328937e-05
  using double precision KISS FFT
  3d grid and FFT values/proc = 5610 1800
Generated 0 of 15 mixed pair_coeff terms from arithmetic mixing rule
Per MPI rank memory allocation (min/avg/max) = 15.57 | 15.61 | 15.64 Mbytes
   Step        Density          Temp          Press          TotEng    
     10000   0.98537864     1298.3483      6572.6343      3063.9587    
     11000   0.90728863     1210.4685     -9719.6206     -2066.6748    
     12000   0.86471254     882.18536     -11361.094     -4805.0979    
     13000   0.84981866     734.56903     -10259.378     -6580.803     
     14000   0.85558996     634.02895     -9022.0657     -7908.4712    
     15000   0.87795        564.17829     -6809.8784     -8987.4867    
     16000   0.91246904     524.74642     -4689.8373     -9878.0674    
     17000   0.95362986     499.75676     -2449.365      -10619.758    
     18000   0.9957546      481.48365     -222.1425      -11241.994    
     19000   1.034354       463.07665      1797.3946     -11766.574    
     20000   1.0664951      453.83346      2229.7915     -12234.506    
Loop time of 35.2183 on 24 procs for 10000 steps with 3162 atoms

Performance: 0.245 ns/day, 97.829 hours/ns, 283.944 timesteps/s
99.4% CPU use with 24 MPI tasks x no OpenMP threads

MPI task timing breakdown:
Section |  min time  |  avg time  |  max time  |%varavg| %total
---------------------------------------------------------------
Pair    | 12.067     | 14.269     | 16.701     |  31.2 | 40.52
Bond    | 0.054955   | 0.060873   | 0.065657   |   1.3 |  0.17
Kspace  | 7.3061     | 9.9125     | 11.96      |  38.0 | 28.15
Neigh   | 0.021664   | 0.023325   | 0.024775   |   0.8 |  0.07
Comm    | 1.4556     | 1.6873     | 1.9382     |  13.0 |  4.79
Output  | 0.00051161 | 0.00055328 | 0.0012562  |   0.0 |  0.00
Modify  | 7.5898     | 8.0309     | 8.9679     |  18.4 | 22.80
Other   |            | 1.233      |            |       |  3.50

Nlocal:         131.75 ave         147 max         119 min
Histogram: 2 1 2 5 5 2 4 1 1 1
Nghost:        4563.29 ave        4644 max        4496 min
Histogram: 2 4 2 2 2 6 3 0 1 2
Neighs:        52186.7 ave       60791 max       45909 min
Histogram: 2 3 2 4 5 4 0 2 1 1

Total # of neighbors = 1252480
Ave neighs/atom = 396.10373
Ave special neighs/atom = 2.0341556
Neighbor list builds = 15
Dangerous builds = 0
timestep 0.1
run ${Ninptpre}
run 10000
PPPM initialization ...
  extracting TIP4P info from pair style
  using 12-bit tables for long-range coulomb (../kspace.cpp:342)
  G vector (1/distance) = 0.31172111
  grid = 30 30 30
  stencil order = 5
  estimated absolute RMS force accuracy = 0.0034778218
  estimated relative force accuracy = 1.0473357e-05
  using double precision KISS FFT
  3d grid and FFT values/proc = 5610 1800
Generated 0 of 15 mixed pair_coeff terms from arithmetic mixing rule
Per MPI rank memory allocation (min/avg/max) = 15.57 | 15.61 | 15.65 Mbytes
   Step        Density          Temp          Press          TotEng    
     20000   1.0664951      453.83346      1294.777      -12234.503    
     21000   1.1492002      318.95976      598.01188     -15296.704    
     22000   1.1465124      307.94662      101.54943     -15935.9      
     23000   1.1274761      305.58801     -9.2699635     -16124.765    
     24000   1.1285995      301.74571     -510.57869     -16349.017    
     25000   1.122059       299.19833      456.40503     -16473.74     
     26000   1.1193409      307.54092      1041.7716     -16389.531    
     27000   1.1079126      296.37221      12.618006     -16477.522    
     28000   1.1067506      298.52958      414.48342     -16542.906    
     29000   1.1055241      304.22133      663.29244     -16545.963    
     30000   1.0953853      292.63215      177.44208     -16636.81     
Loop time of 39.111 on 24 procs for 10000 steps with 3162 atoms

Performance: 2.209 ns/day, 10.864 hours/ns, 255.683 timesteps/s
99.4% CPU use with 24 MPI tasks x no OpenMP threads

MPI task timing breakdown:
Section |  min time  |  avg time  |  max time  |%varavg| %total
---------------------------------------------------------------
Pair    | 15.516     | 17.113     | 18.17      |  17.5 | 43.75
Bond    | 0.054407   | 0.060839   | 0.064325   |   0.9 |  0.16
Kspace  | 8.3409     | 9.595      | 11.384     |  23.8 | 24.53
Neigh   | 0.15668    | 0.16913    | 0.1795     |   2.2 |  0.43
Comm    | 1.6172     | 1.881      | 2.1785     |  13.8 |  4.81
Output  | 0.00052322 | 0.010812   | 0.24719    |  47.4 |  0.03
Modify  | 8.3478     | 8.8022     | 9.7651     |  17.6 | 22.51
Other   |            | 1.479      |            |       |  3.78

Nlocal:         131.75 ave         143 max         124 min
Histogram: 5 1 2 5 3 4 0 1 2 1
Nghost:        4648.46 ave        4688 max        4619 min
Histogram: 5 1 3 1 4 4 2 1 1 2
Neighs:        53598.3 ave       58779 max       50114 min
Histogram: 4 3 4 2 1 6 1 0 0 3

Total # of neighbors = 1286360
Ave neighs/atom = 406.81847
Ave special neighs/atom = 2.0341556
Neighbor list builds = 98
Dangerous builds = 0
timestep 0.2
run ${Ninptpre}
run 10000
PPPM initialization ...
  extracting TIP4P info from pair style
  using 12-bit tables for long-range coulomb (../kspace.cpp:342)
  G vector (1/distance) = 0.31235859
  grid = 30 30 30
  stencil order = 5
  estimated absolute RMS force accuracy = 0.0033869012
  estimated relative force accuracy = 1.0199552e-05
  using double precision KISS FFT
  3d grid and FFT values/proc = 5610 1800
Generated 0 of 15 mixed pair_coeff terms from arithmetic mixing rule
Per MPI rank memory allocation (min/avg/max) = 15.57 | 15.61 | 15.65 Mbytes
   Step        Density          Temp          Press          TotEng    
     30000   1.0953853      292.63215     -627.86925     -16636.809    
     31000   1.0917256      304.50631     -1165.9403     -16724.904    
     32000   1.0896189      304.85535     -983.37709     -16636.128    
     33000   1.0972997      298.51646      746.18888     -16760.658    
     34000   1.0746499      304.83173     -1717.2313     -16613.171    
     35000   1.0976416      301.03565      979.48052     -16662.068    
     36000   1.0889088      293.42838     -162.76225     -16767.566    
     37000   1.080415       293.44634     -816.9938      -16801.666    
     38000   1.0792407      291.78117     -1065.8526     -16716.378    
     39000   1.0866821      304.16695      610.47646     -16737.86     
     40000   1.0692393      302.22717     -882.56146     -16718.907    
Loop time of 39.0862 on 24 procs for 10000 steps with 3162 atoms

Performance: 4.421 ns/day, 5.429 hours/ns, 255.845 timesteps/s
99.4% CPU use with 24 MPI tasks x no OpenMP threads

MPI task timing breakdown:
Section |  min time  |  avg time  |  max time  |%varavg| %total
---------------------------------------------------------------
Pair    | 16.101     | 17.113     | 18.278     |  14.7 | 43.78
Bond    | 0.056721   | 0.06186    | 0.067442   |   1.0 |  0.16
Kspace  | 8.337      | 9.2965     | 10.398     |  19.0 | 23.78
Neigh   | 0.31219    | 0.3397     | 0.36232    |   3.3 |  0.87
Comm    | 1.636      | 1.9087     | 2.2229     |  14.3 |  4.88
Output  | 0.00052537 | 0.00057126 | 0.0014689  |   0.0 |  0.00
Modify  | 8.6704     | 9.1134     | 10.079     |  17.4 | 23.32
Other   |            | 1.252      |            |       |  3.20

Nlocal:         131.75 ave         143 max         121 min
Histogram: 3 1 1 3 4 4 3 2 1 2
Nghost:        4544.62 ave        4589 max        4524 min
Histogram: 5 6 2 4 0 3 2 0 1 1
Neighs:        52380.3 ave       60537 max       47047 min
Histogram: 2 6 4 2 0 3 4 2 0 1

Total # of neighbors = 1257128
Ave neighs/atom = 397.57369
Ave special neighs/atom = 2.0341556
Neighbor list builds = 202
Dangerous builds = 0
timestep 0.5
run ${Ninptpre}
run 10000
PPPM initialization ...
  extracting TIP4P info from pair style
  using 12-bit tables for long-range coulomb (../kspace.cpp:342)
  G vector (1/distance) = 0.31178248
  grid = 30 30 30
  stencil order = 5
  estimated absolute RMS force accuracy = 0.0034689719
  estimated relative force accuracy = 1.0446706e-05
  using double precision KISS FFT
  3d grid and FFT values/proc = 5610 1800
Generated 0 of 15 mixed pair_coeff terms from arithmetic mixing rule
Per MPI rank memory allocation (min/avg/max) = 15.57 | 15.61 | 15.65 Mbytes
   Step        Density          Temp          Press          TotEng    
     40000   1.0692393      302.22717      1472.1632     -16718.91     
     41000   1.0698417      289.94478     -712.99448     -16879.738    
     42000   1.0935594      296.5759       213.90922     -16754.264    
     43000   1.0866333      289.63156     -160.93363     -16819.407    
     44000   1.0885385      299.1889      -895.73282     -16747.315    
     45000   1.1034391      305.24064      903.76072     -16760.745    
     46000   1.0762823      288.91694     -789.20559     -16840.663    
     47000   1.0844706      301.66811      575.40696     -16706.551    
     48000   1.0948797      305.25821     -194.51755     -16775.211    
     49000   1.0904487      289.20724     -168.05614     -16849.725    
     50000   1.0793207      296.22269     -525.53066     -16768.212    
Loop time of 39.708 on 24 procs for 10000 steps with 3162 atoms

Performance: 10.879 ns/day, 2.206 hours/ns, 251.838 timesteps/s
99.4% CPU use with 24 MPI tasks x no OpenMP threads

MPI task timing breakdown:
Section |  min time  |  avg time  |  max time  |%varavg| %total
---------------------------------------------------------------
Pair    | 15.555     | 17.093     | 18.118     |  15.9 | 43.05
Bond    | 0.05811    | 0.061327   | 0.065685   |   0.7 |  0.15
Kspace  | 8.4215     | 9.2499     | 10.965     |  21.7 | 23.29
Neigh   | 0.90884    | 0.98403    | 1.0472     |   5.6 |  2.48
Comm    | 1.6783     | 1.9534     | 2.2688     |  14.6 |  4.92
Output  | 0.00052452 | 0.00056334 | 0.00081391 |   0.0 |  0.00
Modify  | 8.7109     | 9.1316     | 10.088     |  17.1 | 23.00
Other   |            | 1.234      |            |       |  3.11

Nlocal:         131.75 ave         147 max         115 min
Histogram: 1 1 1 3 4 4 6 1 2 1
Nghost:        4573.62 ave        4608 max        4538 min
Histogram: 2 2 1 1 4 5 5 1 1 2
Neighs:        52849.2 ave       59062 max       45706 min
Histogram: 2 0 1 3 7 3 3 1 2 2

Total # of neighbors = 1268380
Ave neighs/atom = 401.13219
Ave special neighs/atom = 2.0341556
Neighbor list builds = 591
Dangerous builds = 0
reset_timestep 0

# continuing the initialization with the final value of timestep
unfix integrate
fix integrate all rigid/npt/small molecule temp ${Temp} ${Temp} 100.0 iso ${Pres} ${Pres} 1000.0
fix integrate all rigid/npt/small molecule temp 298.15 ${Temp} 100.0 iso ${Pres} ${Pres} 1000.0
fix integrate all rigid/npt/small molecule temp 298.15 298.15 100.0 iso ${Pres} ${Pres} 1000.0
fix integrate all rigid/npt/small molecule temp 298.15 298.15 100.0 iso 1 ${Pres} 1000.0
fix integrate all rigid/npt/small molecule temp 298.15 298.15 100.0 iso 1 1 1000.0
  create bodies CPU = 0.000 seconds
  1054 rigid bodies with 3162 atoms
  1.490117 = max distance from body owner to body atom

timestep ${tstep}
timestep 2
run ${Ninpt}
run 10000000
PPPM initialization ...
  extracting TIP4P info from pair style
  using 12-bit tables for long-range coulomb (../kspace.cpp:342)
  G vector (1/distance) = 0.31200647
  grid = 30 30 30
  stencil order = 5
  estimated absolute RMS force accuracy = 0.0034368503
  estimated relative force accuracy = 1.0349972e-05
  using double precision KISS FFT
  3d grid and FFT values/proc = 5610 1800
Generated 0 of 15 mixed pair_coeff terms from arithmetic mixing rule
Per MPI rank memory allocation (min/avg/max) = 15.57 | 15.61 | 15.65 Mbytes
   Step        Density          Temp          Press          TotEng    
         0   1.0793207      296.22269      1826.3619     -16768.212    
      1000   1.0935277      300.37765     -113.9179      -16804.087    
      2000   1.079138       298.39918     -276.85579     -16815.189    
      3000   1.0825869      299.29412     -421.62441     -16792.956    
      4000   1.0685446      290.37348     -590.98363     -16869.995    
      5000   1.0942191      296.28258     -199.60894     -16902.048    
      6000   1.0843915      298.38248      166.24997     -16775.056    
      7000   1.0820732      298.57491      380.55416     -16817.214    
      8000   1.080815       303.11157      796.55811     -16763.086    
      9000   1.0798272      300.53605     -329.73785     -16863.505    
     10000   1.0831016      292.11329     -753.6792      -16831.397    
     11000   1.0800102      294.28331     -158.23145     -16876.546    
     12000   1.0744356      296.09751     -370.47607     -16850.374    
     13000   1.0809001      299.8249      -591.70869     -16844.722    
     14000   1.0830007      304.11029     -897.7205      -16802.753    
     15000   1.0812614      299.94788     -216.61337     -16881.061    
     16000   1.0823234      292.76418      171.87098     -16855.431    
     17000   1.0834403      303.30814      717.46503     -16732.957    
     18000   1.0817264      298.1512      -554.71742     -16908.749    
     19000   1.0691481      289.11473     -195.70988     -16860.837    
     20000   1.0662995      299.9483      -494.33935     -16850.471    
     21000   1.0826852      294.9274       82.368524     -16805.197    
     22000   1.0798719      300.62633     -317.09345     -16855.083    
     23000   1.0899864      293.36982      74.670872     -16924.466    
     24000   1.0802487      294.58651     -248.87089     -16841.437    
     25000   1.0839762      296.95295      160.40412     -16784.774    
     26000   1.0917186      291.71703      204.05857     -16784.547    
     27000   1.1041487      291.55051      394.63018     -16861.876    
     28000   1.0984029      300.72148      434.46524     -16795.757    
     29000   1.0949612      299.53933      783.68568     -16839.135    
     30000   1.0781863      293.14843      324.46504     -16829.719    
     31000   1.0854635      289.68423      1123.8451     -16964.069    
     32000   1.0826722      296.54196     -318.41281     -16860.753    
     33000   1.0829882      300.25177     -50.647441     -16786.47     
     34000   1.0838003      292.09326      636.52622     -16801.278    
     35000   1.0838973      298.80785      283.17493     -16814.777    
     36000   1.0857276      290.99566     -1358.9828     -16839.344    
     37000   1.0785752      303.03284      904.48034     -16664.259    
     38000   1.0911912      299.68001     -431.62682     -16795.734    
     39000   1.0861329      296.45474      99.248267     -16875.838    
     40000   1.0714217      298.17977      555.44265     -16757.225    
     41000   1.0690256      299.25132     -394.18012     -16793.065    
     42000   1.0775574      294.47809     -463.9402      -16907.048    
     43000   1.0709264      291.21197     -517.57406     -16824.438    
     44000   1.0855092      304.91929      348.39676     -16815.75     
     45000   1.0763576      302.4246      -223.36849     -16803.585    
     46000   1.0838543      292.88835     -638.35175     -16792.026    
     47000   1.0675344      294.32054     -315.02526     -16829.926    
     48000   1.0781968      300.54695      761.31545     -16881.515    
     49000   1.0822689      298.84164      750.78148     -16844.189    
     50000   1.0838423      287.45258      185.16177     -16880.739    
     51000   1.0945751      300.29524      612.22891     -16734.583    
     52000   1.0937458      295.74727     -47.318893     -16860.928    
     53000   1.0922637      292.74534     -191.5972      -16866.833    
     54000   1.0866167      295.28137     -639.97887     -16851.65     
     55000   1.0982276      301.9518       627.75338     -16789.499    
     56000   1.0824864      288.96808     -309.99055     -16943.348    
     57000   1.0853566      299.12283     -6.5720325     -16796.866    
     58000   1.0831251      295.72452      16.456101     -16783.185    
     59000   1.0770302      294.96509     -49.201511     -16765.936    
     60000   1.0777657      294.49743      107.7648      -16911.417    
     61000   1.0823851      289.65421      23.421925     -16848.76     
     62000   1.0679561      292.08376     -626.12529     -16835.879    
     63000   1.0688527      290.18094      187.73023     -16915.551    
     64000   1.0814666      288.43784      479.64045     -16780.914    
     65000   1.0824896      294.28118      269.82671     -16829.768    
     66000   1.0795552      295.45089     -494.2446      -16903.027    
     67000   1.0740734      299.09572      456.84881     -16745.024    
     68000   1.0930797      305.43822      503.55813     -16820.429    
     69000   1.0947241      292.80436      495.89597     -16890.334    
     70000   1.0851857      298.65528     -491.55766     -16869.575    
     71000   1.0878394      294.35173      420.02876     -16901.985    
     72000   1.0761862      292.16007     -539.12908     -16775.501    
     73000   1.0719652      285.53256     -874.13511     -16911.689    
     74000   1.0838701      294.35791     -939.4742      -16880.593    
     75000   1.0810046      293.03563      451.93397     -16809.459    
     76000   1.0813369      297.14529     -85.322467     -16897.05     
     77000   1.0883302      296.47229      873.81935     -16861.285    
     78000   1.0744487      297.73401     -0.59250483    -16750.362    
     79000   1.0899619      294.51728      1009.4931     -16852.663    
     80000   1.0846051      290.74262      522.67114     -16849.051    
     81000   1.08488        295.25665      1108.0325     -16777.358    
     82000   1.0893726      301.10333      1011.2039     -16809.105    
     83000   1.0955607      305.01973      403.02531     -16864.699    
     84000   1.0968864      297.7602       1292.9705     -16841.542    
     85000   1.0923236      297.52126      88.088569     -16782.279    
     86000   1.0890033      295.29336      756.81177     -16804.445    
     87000   1.0790556      309.15935      281.37442     -16788.628    
     88000   1.0720894      294.47206      732.26025     -16815.812    
     89000   1.0758755      296.06402      122.45051     -16816.726    
     90000   1.0737217      290.33005     -550.17677     -16872.924    
     91000   1.0752241      290.4791       731.82219     -16808.978    
     92000   1.0781687      295.48202     -335.03143     -16783.724    
     93000   1.0798279      285.56597     -174.48736     -16952.045    
     94000   1.0793293      293.91567     -20.834216     -16838.623    
     95000   1.0750631      284.74908      50.43678      -16968.662    
     96000   1.0701311      295.5589      -67.000081     -16818.443    
     97000   1.083829       293.33408      867.61863     -16852.812    
     98000   1.0799242      307.51255     -216.30123     -16781.271    
     99000   1.083199       298.67845      8.807305      -16744.308    
    100000   1.0818723      295.315       -634.97418     -16719.395    
    101000   1.0734599      301.11719     -172.63264     -16801.582    
    102000   1.0882796      290.44321      58.044813     -16781.243    
    103000   1.0708421      297.48072     -559.28084     -16750.453    
    104000   1.0748528      283.13534     -619.70743     -16807.863    
    105000   1.0767422      297.93008     -354.57206     -16879.484    
    106000   1.0915056      298.29312      415.98254     -16815.001    
    107000   1.0748984      301.09648     -431.33106     -16851.569    
    108000   1.0678948      295.91574     -230.82093     -16832.225    
    109000   1.0698127      305.39559     -618.30757     -16773.06     
    110000   1.0750283      300.25492      156.61958     -16816.616    
    111000   1.0810626      310.18429     -74.102557     -16758.453    
    112000   1.0813744      295.41724      214.24412     -16828.29     
    113000   1.0868371      298.73817      278.29235     -16796.855    
    114000   1.0813213      295.89096     -513.11438     -16873.802    
    115000   1.0804152      290.09279     -541.14663     -16869.856    
    116000   1.0892819      289.61875     -315.21974     -16891.261    
    117000   1.0763119      294.42033      228.19252     -16895.47     
    118000   1.0840173      289.66849      784.14695     -16864.609    
    119000   1.0790613      293.12635     -442.04302     -16888.722    
    120000   1.0720974      296.29447     -1127.7104     -16791.702    
    121000   1.0754025      300.42493      103.00453     -16782.992    
    122000   1.0742941      290.31888     -34.858745     -16904.759    
    123000   1.0802447      294.95983      432.03035     -16893.998    
    124000   1.0783311      296.33623     -245.03863     -16745.836    
    125000   1.0811183      294.19888      280.81693     -16848.039    
    126000   1.0755251      293.36957     -240.10172     -16831.295    
    127000   1.0757079      292.40175      102.17398     -16926.745    
    128000   1.0787345      304.22332      271.58199     -16799.958    
    129000   1.0737598      295.90786     -358.28707     -16839.165    
    130000   1.0753048      288.5685      -113.96645     -16923.492    
    131000   1.0805379      302.62815     -360.39101     -16846.369    
    132000   1.0811924      284.57341     -716.91092     -16849.291    
    133000   1.07808        301.76994      199.92685     -16767.284    
    134000   1.08338        296.39177     -417.60927     -16823.633    
    135000   1.0780144      308.03271      558.59596     -16778.412    
    136000   1.0904814      290.11451      8.0751767     -16941.45     
    137000   1.0857545      292.88158      483.52768     -16837.64     
    138000   1.0779372      298.7385      -210.00702     -16854.778    
    139000   1.0901056      295.63456     -50.294195     -16836.357    
    140000   1.0789226      292.39512     -251.73148     -16862.637    
    141000   1.0820078      291.27901     -11.646657     -16839.083    
    142000   1.0859913      301.1053       880.50496     -16794.558    
    143000   1.0887413      302.43462      821.05606     -16793.297    
    144000   1.0838001      292.02109      493.41419     -16864.69     
    145000   1.0954956      299.66294     -245.59277     -16841.902    
    146000   1.071755       299.01728     -681.06111     -16801.832    
    147000   1.068183       290.74605     -1316.798      -16858.432    
    148000   1.0825835      297.45816      1411.7431     -16902.915    
    149000   1.0880456      298.90282      403.19727     -16802.495    
    150000   1.0766592      293.14695     -176.40647     -16861.342    
    151000   1.0760202      300.74101     -429.92637     -16835.617    
    152000   1.0989976      298.5746       1241.7985     -16834.358    
    153000   1.0762726      292.44039      119.77477     -16860.445    
    154000   1.0803007      302.79458      513.28517     -16688.053    
    155000   1.0867358      286.07368      217.78395     -16802.783    
    156000   1.084638       304.29408     -196.56033     -16824.054    
    157000   1.0807297      305.61836     -409.53198     -16739.17     
    158000   1.0842224      301.94977     -62.522268     -16816.326    
    159000   1.0855403      295.98009      177.88553     -16854.33     
    160000   1.0768892      301.96282     -735.60867     -16950.583    
    161000   1.0831506      296.2256      -355.22248     -16836.867    
    162000   1.0723626      298.57309     -271.96218     -16751.973    
    163000   1.0718516      300.11093     -508.94379     -16830.668    
    164000   1.0865171      288.52163      834.01156     -16875.349    
    165000   1.0886953      296.85361      177.30402     -16876.734    
    166000   1.092921       301.58508      1539.9736     -16805.712    
    167000   1.0872331      298.58315      174.3899      -16799.865    
    168000   1.0869195      296.30897     -293.79062     -16789.656    
    169000   1.0789903      287.425       -681.59886     -16922.209    
    170000   1.0807875      297.34124     -33.335555     -16761.886    
    171000   1.0926448      295.01636     -188.42712     -16878.211    
    172000   1.0961659      298.41559      366.59983     -16873.606    
    173000   1.0827735      299.55269     -110.70878     -16790.896    
    174000   1.069188       291.98952     -443.14344     -16827.702    
    175000   1.0815572      294.46932     -610.66636     -16891.318    
    176000   1.068164       303.65808     -1330.4046     -16662.46     
    177000   1.0861895      284.89167      204.56843     -16977.171    
    178000   1.0884237      290.86076      907.50011     -16893.804    
    179000   1.0781701      294.29382      3.0999538     -16843.27     
    180000   1.0765222      289.13706     -430.86245     -16878.163    
    181000   1.0818619      297.87187     -470.87112     -16751.824    
    182000   1.0712085      294.82954     -463.17288     -16887.187    
    183000   1.0823453      303.80051      302.26674     -16898.111    
    184000   1.0819306      287.55178      1187.7889     -16818.177    
    185000   1.0800298      287.48658     -145.20067     -16867.714    
    186000   1.0806106      304.73059      645.45673     -16793.164    
    187000   1.0677209      300.81193      25.657544     -16770.598    
    188000   1.0731265      296.00964     -878.38401     -16796.013    
    189000   1.0748985      297.94974      17.855121     -16763.726    
    190000   1.073147       295.66131      231.99211     -16802.015    
    191000   1.083051       303.68097      295.12404     -16792.961    
    192000   1.0768238      295.62633     -600.16812     -16804.073    
    193000   1.0748729      292.17323     -135.20601     -16806.524    
    194000   1.0708152      300.19741     -649.77974     -16887.476    
    195000   1.0759719      300.92437      381.11172     -16821.36     
    196000   1.0892009      286.5691       1177.9681     -16903.458    
    197000   1.0895457      288.61407      241.77084     -16938.706    
    198000   1.0867569      291.71831      200.10308     -16782.565    
    199000   1.0794873      291.75631      289.47513     -16924.583    
    200000   1.0925841      298.75455     -202.81052     -16829.49     
    201000   1.0812288      299.62434     -235.53191     -16837.989    
    202000   1.0780875      304.13891      780.6042      -16816.54     
    203000   1.0897469      298.41138     -344.02232     -16821.565    
    204000   1.072978       298.30627     -474.46919     -16776.325    
    205000   1.0832785      300.77174      956.40567     -16804.069    
    206000   1.1026971      303.16169      178.09286     -16851.65     
    207000   1.0839931      303.90395      598.5981      -16842.752    
    208000   1.075525       290.74644     -350.01748     -16844.598    
    209000   1.0721095      301.25173     -200.30272     -16835.31     
    210000   1.0709455      291.58319     -1054.7364     -16828.684    
    211000   1.0812557      300.07522     -483.8401      -16772.819    
    212000   1.0901239      304.09254      516.77904     -16811.544    
    213000   1.0855007      293.29259     -95.465755     -16838.124    
    214000   1.0718678      293.22137      396.66685     -16809.272    
    215000   1.0729492      295.8155       9.4321371     -16726.633    
    216000   1.0803368      293.44754     -735.52362     -16829.909    
    217000   1.0781919      297.63495      194.31446     -16840.549    
    218000   1.0864611      294.60261      599.38036     -16765.302    
    219000   1.0928577      293.41902      584.94535     -16864.036    
    220000   1.0876561      293.53541     -573.81844     -16935.818    
    221000   1.0942382      295.95504      690.5553      -16872.855    
    222000   1.0926401      295.10827      702.28539     -16790.355    
    223000   1.0761981      292.52483      898.70356     -16888.314    
    224000   1.0770352      297.12652     -143.40998     -16882.837    
    225000   1.0853696      289.99083      245.2339      -16767.67     
    226000   1.0765238      288.96864      318.60435     -16875.374    
    227000   1.0856664      295.22433     -166.50108     -16784.04     
    228000   1.0840047      303.96969     -137.41838     -16683.029    
    229000   1.0895475      289.67229      169.51062     -16865.932    
    230000   1.0828679      296.63759      70.467424     -16759.119    
    231000   1.0798014      291.71721     -169.66428     -16851.857    
    232000   1.0805164      300.89644     -295.61466     -16817.194    
    233000   1.0901226      295.91062      441.98779     -16879.921    
    234000   1.0805491      296.38366     -11.357001     -16871.188    
    235000   1.0873765      292.81795      147.98482     -16879.101    
    236000   1.0865843      293.43357      296.73618     -16915.451    
    237000   1.0912335      304.70827      542.13414     -16858.358    
    238000   1.0753689      294.97151      202.83887     -16846.633    
    239000   1.0806705      290.44217      273.5581      -16819.694    
    240000   1.0725643      292.33945     -230.18109     -16807.937    
    241000   1.0788878      291.92779      246.78427     -16832.594    
    242000   1.0698688      301.31537      320.55953     -16830.493    
    243000   1.0814165      299.43046     -50.168441     -16801.424    
    244000   1.080067       291.33897      271.39699     -16896.822    
    245000   1.0789771      301.58208     -346.73911     -16769.962    
    246000   1.0774455      299.31268      177.48903     -16780.311    
    247000   1.085781       295.69536     -273.43537     -16835.484    
    248000   1.0835512      287.5253       491.0571      -16849.191    
    249000   1.0869746      289.00877     -80.60788      -16935.401    
    250000   1.0766988      295.41213     -843.65294     -16898.414    
    251000   1.0770005      285.14486     -194.43683     -16935.572    
    252000   1.0808067      298.07363     -984.42389     -16847.913    
    253000   1.0814958      293.42317      10.134608     -16773.879    
    254000   1.0835541      296.43278     -549.64626     -16854.857    
    255000   1.090152       292.31638     -127.74642     -16910.216    
    256000   1.0895294      292.4927       266.73238     -16840.955    
    257000   1.0840868      301.1473       712.17366     -16732.792    
    258000   1.0778873      300.33529      150.42252     -16754.901    
    259000   1.0874377      298.18471     -969.83858     -16779.512    
    260000   1.0767168      287.40907     -288.49523     -16808.056    
    261000   1.0836701      294.68534     -77.477414     -16821.764    
    262000   1.0709281      292.01142     -275.61982     -16824.081    
    263000   1.0717427      305.36819      293.86949     -16862.65     
    264000   1.085843       293.33652      313.56152     -16770.521    
    265000   1.081329       302.0504       202.14065     -16835.997    
    266000   1.0785654      299.59272     -226.49173     -16666.902    
    267000   1.0776349      290.01054     -435.85855     -16822.512    
    268000   1.0832535      290.14433     -439.12525     -16857.914    
    269000   1.076576       298.67182      604.06772     -16782.063    
    270000   1.0691991      302.85733     -467.52578     -16728.074    
    271000   1.0848992      301.45875      315.64511     -16795.772    
    272000   1.0832597      296.88902      277.11453     -16775.148    
    273000   1.0919153      296.88379      389.86954     -16914.778    
    274000   1.0823264      296.96473      38.804498     -16814.047    
    275000   1.0750049      302.84348     -491.4049      -16824.975    
    276000   1.0855884      290.40959      448.81308     -16807.609    
    277000   1.0795205      289.23223     -524.85822     -16873.515    
    278000   1.0969671      294.62644      553.9753      -16853.709    
    279000   1.0727467      293.98744     -75.84253      -16863.839    
    280000   1.0685356      295.54599      458.96433     -16730.337    
    281000   1.0731353      287.46025      57.759851     -16809.766    
    282000   1.0900565      294.49487     -235.17232     -16794.916    
    283000   1.0884768      303.37983      77.576245     -16764.787    
    284000   1.0899712      292.62298      1102.3345     -16935.428    
    285000   1.0799706      299.94727      391.7213      -16778.631    
    286000   1.0788181      302.60763     -197.40347     -16866.923    
    287000   1.0753147      299.96384      151.11816     -16742.47     
    288000   1.086037       287.61441      508.49698     -16808.569    
    289000   1.0868944      296.50397     -86.806268     -16862.185    
    290000   1.0937         285.0102       42.594181     -16958.862    
    291000   1.0845632      293.62223     -357.31191     -16869.144    
    292000   1.0756266      294.21226     -349.26317     -16827.568    
    293000   1.0845805      293.40496      713.17667     -16824.758    
    294000   1.0808684      293.01189      677.91202     -16820.054    
    295000   1.0876969      291.68052      378.96948     -16902.313    
    296000   1.0784626      295.12069      647.102       -16806.627    
    297000   1.088383       295.05066      327.34342     -16893.381    
    298000   1.0833692      297.17316      549.00702     -16871.769    
    299000   1.088869       291.37565     -117.92589     -16876.833    
    300000   1.0830803      298.91466     -34.023693     -16832.269    
    301000   1.0801162      295.25917     -12.018626     -16813.819    
    302000   1.0740145      294.2302       181.90354     -16881.024    
    303000   1.0827021      297.3861      -164.97511     -16832.77     
    304000   1.083579       285.73893     -738.87712     -16913.012    
    305000   1.0951279      295.33841      110.58638     -16810.413    
    306000   1.077662       292.09059      31.121757     -16789.887    
    307000   1.0844726      304.29872     -294.637       -16726.555    
    308000   1.0906518      288.52995      79.520112     -16958.899    
    309000   1.0903205      296.99417      296.2686      -16922.287    
    310000   1.07347        300.68648     -415.58002     -16821.918    
    311000   1.0809771      285.981       -490.85387     -16909.879    
    312000   1.0886822      301.22159      188.74713     -16732.083    
    313000   1.0798225      296.19277     -715.18582     -16835.804    
    314000   1.0731468      295.49226      515.5462      -16891.594    
    315000   1.0849921      295.50162     -70.097941     -16882.532    
    316000   1.0852142      293.25927     -163.36979     -16867.692    
    317000   1.0910188      284.00454      427.68618     -16977.074    
    318000   1.0926527      285.0952       532.40994     -16930.746    
    319000   1.0857267      296.34304      223.00068     -16898.891    
    320000   1.0661113      293.99821     -1439.2108     -16873.302    
    321000   1.0787861      297.9463       352.78076     -16932.503    
    322000   1.0750322      294.23124     -895.25887     -16853.538    
    323000   1.0877541      295.01973      242.76018     -16832.198    
    324000   1.0878179      291.20072      1186.6755     -16804.956    
    325000   1.0764614      293.03384      293.41993     -16824.018    
    326000   1.0882835      289.2931       666.732       -16854.323    
    327000   1.0729604      297.96195      248.91624     -16792.987    
    328000   1.0783197      294.66203      571.87579     -16801.667    
    329000   1.0759411      302.88352      432.272       -16670.401    
    330000   1.0783757      291.84835     -841.43623     -16894.54     
    331000   1.0781883      309.38398      94.430679     -16731.918    
    332000   1.080774       301.26025     -410.82495     -16749.759    
    333000   1.073882       287.67302     -227.51255     -16812.841    
    334000   1.0766885      295.71108     -242.10678     -16829.589    
    335000   1.0726055      290.92905     -629.74215     -16827.155    
    336000   1.0856524      289.66819     -382.53927     -16890.215    
    337000   1.0858875      299.49699     -77.53673      -16799.702    
    338000   1.0884732      304.08145      1240.3162     -16854.706    
    339000   1.087429       299.75631      52.812713     -16737.345    
    340000   1.0806131      296.13023      304.80583     -16811.035    
    341000   1.090214       297.41008      599.28858     -16884.013    
    342000   1.0965234      297.17755      675.90531     -16820.27     
    343000   1.0819111      295.11361      133.82285     -16789.918    
    344000   1.0770304      289.95456     -510.62298     -16917.579    
    345000   1.0758209      297.57999     -610.87419     -16788.956    
    346000   1.074021       288.08988     -12.814087     -16835.247    
    347000   1.0712398      282.82847     -241.67184     -16953.235    
    348000   1.063609       298.10334     -107.11798     -16739.311    
    349000   1.0633752      302.32516     -325.70236     -16718.461    
    350000   1.0856241      299.367       -273.7778      -16769.032    
    351000   1.0809104      293.50665     -751.36471     -16830.749    
    352000   1.0839498      299.78371     -542.42608     -16791.604    
    353000   1.0882276      297.55299     -557.09609     -16839.77     
    354000   1.0784432      291.47893     -8.4369564     -16780.057    
    355000   1.0772099      308.11327      1172.9531     -16723.936    
    356000   1.0792251      299.72274      522.6804      -16828.908    
    357000   1.0920721      290.96484      269.81559     -16785.729    
    358000   1.0911892      299.83059     -63.482874     -16784.283    
    359000   1.0818318      302.06663     -109.11923     -16730.961    
    360000   1.0880909      297.91631      461.87291     -16801.006    
    361000   1.0862945      295.54167     -390.44042     -16857.107    
    362000   1.0927908      305.44633      270.57062     -16739.248    
    363000   1.0840851      296.50948     -2.0321321     -16816.597    
    364000   1.0791465      288.77692      79.996095     -16757.911    
    365000   1.0769723      294.89512      839.72715     -16847.557    
    366000   1.0760929      299.26827     -104.29849     -16841.796    
    367000   1.080735       295.28122      92.322839     -16897.472    
    368000   1.0797924      301.04155     -95.057624     -16789.056    
    369000   1.0767948      298.16655      72.805577     -16857.509    
    370000   1.0831278      300.33121     -466.89934     -16781.514    
    371000   1.0807782      285.46819      322.07783     -16814.518    
    372000   1.0799908      295.29604      229.41943     -16733.778    
    373000   1.0808643      300.29088      584.86854     -16696.047    
    374000   1.0849615      292.80623     -158.70771     -16761.756    
    375000   1.0914722      295.3085       179.81173     -16851.192    
    376000   1.0821492      295.39335      139.48951     -16831.072    
    377000   1.084014       303.36496      454.99872     -16831.931    
    378000   1.0818932      298.8855       63.224184     -16838.46     
    379000   1.0694501      292.543        278.53032     -16809.179    
    380000   1.0766575      291.81583      464.84403     -16766.493    
    381000   1.0915591      291.01858     -271.99118     -16868.587    
    382000   1.0708958      293.33116      113.46864     -16916.143    
    383000   1.0829058      302.69349     -231.29943     -16831.637    
    384000   1.0689283      288.90864      51.809995     -16776.625    
    385000   1.0775364      306.35029     -440.91808     -16837.118    
    386000   1.0747567      299.96836      294.82236     -16752.011    
    387000   1.075745       294.01058     -365.30601     -16793.309    
    388000   1.0840068      302.53678      167.25187     -16791.511    
    389000   1.0972391      290.55147      276.72597     -16860.823    
    390000   1.0809484      296.31529     -690.43628     -16860.099    
    391000   1.075568       294.66323     -704.6434      -16810.162    
    392000   1.0993636      297.48367      926.54579     -16807.453    
    393000   1.0770637      302.01478      308.37391     -16704.164    
    394000   1.0921951      293.91415      201.22927     -16894.274    
    395000   1.0812589      286.93084     -223.48809     -16902.86     
    396000   1.0892689      298.24493     -22.969923     -16819.035    
    397000   1.0918557      296.54211      694.94122     -16819.132    
    398000   1.0769852      303.4149      -71.474855     -16786.909    
    399000   1.0784652      298.40704     -823.7604      -16741.89     
    400000   1.0835593      292.73667     -125.10997     -16878.618    
    401000   1.0818146      297.75395      461.54161     -16796.766    
    402000   1.0733663      294.85656     -116.397       -16768.888    
    403000   1.0726474      286.17901     -526.06556     -16944.731    
    404000   1.0900106      301.72167      571.07037     -16801.09     
    405000   1.0933377      288.91335      361.49763     -17017.584    
    406000   1.0867812      290.3691      -89.411177     -16861.068    
    407000   1.0905902      296.19119      646.25351     -16846.806    
    408000   1.0909768      294.8921      -121.4468      -16812.653    
    409000   1.0895452      291.13058      493.09545     -16896.494    
    410000   1.0728663      295.58955     -180.47075     -16795.4      
    411000   1.083975       301.15769     -31.077997     -16729.104    
    412000   1.0870808      293.66874     -391.73959     -16811.573    
    413000   1.0699074      290.83046     -368.81168     -16778.596    
    414000   1.0767557      296.27188     -204.83602     -16769.321    
    415000   1.0755294      301.70576     -239.35824     -16819.748    
    416000   1.0852666      304.17258      411.52546     -16778.756    
    417000   1.0833384      294.47853      914.16928     -16834.104    
    418000   1.0899851      302.86134     -121.57346     -16819.328    
    419000   1.0865349      300.21969      588.28608     -16832.546    
    420000   1.0929329      293.60164     -610.73931     -16904.227    
    421000   1.0831732      301.12514     -646.54259     -16781.091    
    422000   1.066359       295.57532      44.456496     -16826.952    
    423000   1.0821785      303.65663      287.79755     -16745.717    
    424000   1.0856378      290.35512     -173.36802     -16814.566    
    425000   1.0841306      300.97871     -776.2631      -16837.606    
    426000   1.0952186      302.71971      930.23504     -16816.409    
    427000   1.0771232      294.29049      330.93846     -16884.327    
    428000   1.0861994      288.33205     -542.165       -16866.268    
    429000   1.0801997      295.20023     -457.43373     -16855.189    
    430000   1.0935582      302.81242      908.37184     -16834.944    
    431000   1.0645124      295.8362      -417.17192     -16810.503    
    432000   1.0772592      288.58029     -327.1874      -16889.408    
    433000   1.073451       296.67673      650.68615     -16687.443    
    434000   1.0724242      297.62461     -41.303895     -16814.543    
    435000   1.0833366      297.13993      110.14316     -16884.866    
    436000   1.0837055      291.87553     -107.43964     -16854.186    
    437000   1.0802318      308.65003     -351.84016     -16659.258    
    438000   1.0725977      301.00629     -376.77103     -16683.924    
    439000   1.088369       300.05481      1011.8626     -16802.496    
    440000   1.0875031      295.98074      355.14658     -16879.318    
    441000   1.0774097      296.2114      -285.45313     -16860.118    
    442000   1.0751997      290.27555      613.68337     -16887.069    
    443000   1.0827139      297.2706      -450.36282     -16867.005    
    444000   1.0702587      297.44595      400.11735     -16858.06     
    445000   1.0799904      304.0142      -38.639915     -16734.412    
    446000   1.0795663      298.72341      149.18896     -16749.786    
    447000   1.0741566      296.23166     -1081.278      -16800.233    
    448000   1.0828801      298.65436     -601.01623     -16729.047    
    449000   1.0805545      296.43748     -361.72361     -16833.384    
    450000   1.0835281      291.74137      145.78249     -16876.587    
    451000   1.0864367      292.1957       479.78246     -16850.335    
    452000   1.0901419      291.48215      326.64724     -16845.13     
    453000   1.0850511      295.75461     -278.54185     -16825.637    
    454000   1.0871662      289.48152      625.7511      -16888.946    
    455000   1.0736631      290.5553      -487.20655     -16930.563    
    456000   1.0797783      302.39732     -771.92912     -16805.259    
    457000   1.0753375      283.94852     -963.51027     -16872.167    
    458000   1.0805949      298.6648       529.53459     -16800.023    
    459000   1.0738691      300.04985     -880.62539     -16845.579    
    460000   1.0758859      303.59074      274.53927     -16769.883    
    461000   1.0871348      305.07814     -545.46107     -16767.677    
    462000   1.0626683      304.86036     -962.13272     -16773.486    
    463000   1.0715922      296.20124     -385.61135     -16807.983    
    464000   1.0815961      299.53195      21.30223      -16803.965    
    465000   1.0854384      298.38375      1077.9618     -16845.317    
    466000   1.082225       292.58395     -215.41794     -16853.021    
    467000   1.0765342      303.51189     -277.8089      -16731.889    
    468000   1.0747933      288.9693       44.443148     -16810.297    
    469000   1.0746661      295.46306     -65.282446     -16849.009    
    470000   1.0741009      297.55253      790.43104     -16815.122    
    471000   1.0794045      293.09239     -350.6253      -16972.781    
    472000   1.0820558      291.18796     -30.301952     -16836.29     
    473000   1.0747777      301.3211       410.82388     -16831.909    
    474000   1.0891873      295.03368     -95.711136     -16863.859    
    475000   1.0892341      298.90416     -143.27035     -16801.322    
    476000   1.0882301      291.55866     -94.931709     -16828.533    
    477000   1.083015       303.67315     -363.40344     -16756.677    
    478000   1.088164       297.23399     -86.384094     -16756.007    
    479000   1.0877901      291.63085      503.76351     -16780.861    
    480000   1.082312       297.45421      755.73108     -16847.211    
    481000   1.0801801      294.34327      115.3974      -16808.772    
    482000   1.0749445      297.65408      690.4679      -16791.242    
    483000   1.0925803      296.50674      751.12393     -16905.993    
    484000   1.0785591      297.887       -448.03986     -16856.419    
    485000   1.076723       298.42742     -470.95284     -16780.175    
    486000   1.0918556      299.86045     -439.42047     -16839.802    
    487000   1.0792528      297.31589      33.591977     -16785.022    
    488000   1.0824592      299.55774      15.674682     -16800.246    
    489000   1.0716936      306.21861     -383.598       -16824.265    
    490000   1.0883492      295.65995      224.26874     -16781.587    
    491000   1.0864532      296.38456     -242.74545     -16873.228    
    492000   1.0799185      298.91274      54.275927     -16685.677    
    493000   1.0781168      296.24155      784.54401     -16857.263    
    494000   1.0701377      306.69321     -176.34206     -16768.259    
    495000   1.0718567      290.73253     -472.77985     -16947.443    
    496000   1.0686578      306.89774     -596.74552     -16673.363    
    497000   1.0800696      291.40377     -413.31949     -16796.24     
    498000   1.0818613      293.58248      768.46207     -16791.791    
    499000   1.0799192      296.07091      18.160027     -16821.948    
    500000   1.0789453      303.08879     -548.70907     -16745.768    
    501000   1.0805593      290.15365     -210.15557     -16822.499    
    502000   1.0842947      292.31045      50.8339       -16892.992    
    503000   1.0941606      293.21674      498.4723      -16824.935    
    504000   1.0820165      305.3629       38.528036     -16787.628    
    505000   1.0809449      307.64738      946.59746     -16790.298    
    506000   1.0885392      288.01902      233.86345     -16965.14     
    507000   1.0874781      289.97863      77.43781      -16843.306    
    508000   1.0718663      301.28298      730.08715     -16777.786    
    509000   1.0905718      302.58941      1592.5451     -16794.194    
    510000   1.0853972      299.06375      35.226468     -16823.412    
    511000   1.091046       296.36915      229.8935      -16831.885    
    512000   1.0763854      293.38746      162.5829      -16795.02     
    513000   1.082512       293.84431      1009.7053     -16833.156    
    514000   1.0738919      292.4636       130.86894     -16867.351    
    515000   1.0821921      290.86063      106.89342     -16845.03     
    516000   1.0763036      300.35017     -169.01317     -16830.497    
    517000   1.0646043      292.36895     -769.33182     -16801.16     
    518000   1.0704992      298.90679     -888.85402     -16773.342    
    519000   1.0834853      291.85261      243.17632     -16824.867    
    520000   1.0913065      300.02867      807.6186      -16688.017    
    521000   1.0894708      292.61945     -376.18985     -16925.502    
    522000   1.086383       295.33851      606.65387     -16853.94     
    523000   1.0827604      294.3052       426.90577     -16810.936    
    524000   1.0769992      291.30804      274.61571     -16895.846    
    525000   1.091399       295.21125      872.55638     -16885.535    
    526000   1.0678048      296.70163     -485.15657     -16736.828    
    527000   1.1115963      303.38596      1569.2203     -16813.573    
    528000   1.0919617      296.64227      389.29106     -16794.681    
    529000   1.0913436      296.19399      995.97077     -16852.533    
    530000   1.0907216      301.95311      234.92374     -16938.838    
    531000   1.0799144      295.99381      153.06139     -16842.73     
    532000   1.066528       297.73597     -785.56763     -16707.14     
    533000   1.0675303      300.17548     -592.74531     -16736.313    
    534000   1.072385       292.38404     -278.38439     -16790.222    
    535000   1.0809321      293.3939       646.36907     -16837.669    
    536000   1.0780214      308.6671       1.6025998     -16750.941    
    537000   1.0866092      296.42396      715.7143      -16738.069    
    538000   1.0832463      299.75815      201.30251     -16958.027    
    539000   1.0814358      291.75516      430.90257     -16803.453    
    540000   1.07311        294.66722      32.138857     -16912.946    
    541000   1.0907674      296.8028       301.46419     -16921.604    
    542000   1.0892053      307.38157      630.06991     -16903.094    
    543000   1.0831361      295.40567      582.77659     -16816.149    
    544000   1.0817544      301.4718      -346.37693     -16792.104    
    545000   1.0719147      301.58714     -471.66231     -16887.222    
    546000   1.0693929      305.68941     -609.10686     -16860.762    
    547000   1.0739559      308.15408      161.85229     -16777.419    
    548000   1.0753991      295.49576      341.95071     -16827.505    
    549000   1.0781146      298.63201      356.03968     -16904.224    
    550000   1.0788123      304.20166      408.91218     -16726.287    
    551000   1.0802407      299.17325     -198.86092     -16818.14     
    552000   1.0820947      293.21728      594.94108     -16851.703    
    553000   1.0854441      292.84737      279.72321     -16864.951    
    554000   1.0858287      294.0915       292.62825     -16908.482    
    555000   1.0735183      302.92059     -107.37388     -16704.121    
    556000   1.0779491      298.42848     -88.410467     -16862.894    
    557000   1.078987       301.79333     -348.71392     -16862.907    
    558000   1.0738373      296.4282      -220.53212     -16848.591    
    559000   1.0885351      301.96805      454.84559     -16882.354    
    560000   1.083062       304.36305     -569.56124     -16783.904    
    561000   1.0773035      289.19254      233.96528     -16750.579    
    562000   1.0644377      296.42402     -555.28544     -16824.83     
    563000   1.0856525      295.2541      -11.982621     -16889.505    
    564000   1.0879691      286.89155     -961.03933     -16876.604    
    565000   1.1051453      303.15336      1302.1673     -16793.26     
    566000   1.0935724      301.13782      226.63938     -16767.477    
    567000   1.0758886      286.18874      2.851735      -16774.399    
    568000   1.081394       296.11496     -55.44236      -16830.306    
    569000   1.0729101      301.11811     -35.608485     -16733.864    
    570000   1.0735442      307.71775     -781.42161     -16738.359    
    571000   1.0867743      289.41669     -374.57719     -16831.925    
    572000   1.0773198      307.29221      216.28425     -16786.502    
    573000   1.0842786      291.11053     -189.64854     -16768.251    
    574000   1.0835324      301.95334      773.4145      -16811.769    
    575000   1.0779867      294.2059      -918.09371     -16818.33     
    576000   1.0728831      304.156        447.2208      -16787.302    
    577000   1.0886178      295.9246       29.460665     -16889.705    
    578000   1.0704942      302.53533     -917.40126     -16842.533    
    579000   1.0877003      291.37255     -112.69083     -16866.037    
    580000   1.0747194      294.74248     -315.27079     -16800.549    
    581000   1.0838787      293.614       -424.56791     -16866.898    
    582000   1.0701889      293.42997     -511.67484     -16853.747    
    583000   1.0759881      298.10523      176.55638     -16721.423    
    584000   1.0791509      306.00325      652.88939     -16826.154    
    585000   1.0715264      289.28113     -1037.0175     -16901.278    
    586000   1.0693428      294.11424     -613.07513     -16844.222    
    587000   1.0785867      300.3945       58.953457     -16828.146    
    588000   1.0771934      300.39415      121.40002     -16773.927    
    589000   1.0804204      303.13674     -4.9010277     -16810.148    
    590000   1.0774863      288.32725      189.85977     -16907.639    
    591000   1.0982211      291.64043      962.93357     -16944.144    
    592000   1.0943712      297.60597      294.03985     -16833.175    
    593000   1.0873188      300.17428      79.581641     -16800.923    
    594000   1.082573       291.39039     -274.86401     -16802.56     
    595000   1.0865869      284.2872       150.92805     -16938.035    
    596000   1.072777       293.49515     -311.19861     -16849.71     
    597000   1.0774038      289.40202      262.98971     -16801.342    
    598000   1.0652067      293.51562     -1073.3445     -16872.491    
    599000   1.0735389      294.84013     -140.53822     -16773.618    
    600000   1.0726769      298.91362     -635.45949     -16793.419    
    601000   1.0828579      296.14819     -336.85548     -16881.03     
    602000   1.0876771      295.56197      1228.9135     -16779.789    
    603000   1.0750362      300.74617      144.86733     -16820.66     
    604000   1.067262       305.5061      -344.22036     -16702.168    
    605000   1.079235       303.10254     -730.93432     -16785.064    
    606000   1.0665816      291.21635     -650.4971      -16877.224    
    607000   1.0707229      295.67723     -860.46862     -16827.979    
    608000   1.0789349      293.56618     -19.86986      -16801.277    
    609000   1.0762442      297.03116     -353.25766     -16917.671    
    610000   1.0793232      300.67505      115.79723     -16819.264    
    611000   1.0803606      286.671        259.12483     -16887.862    
    612000   1.0802391      301.62257     -929.33221     -16785.393    
    613000   1.0907478      294.28696      699.79811     -16865.99     
    614000   1.07309        300.25556     -1051.0591     -16737.099    
    615000   1.0874535      299.22469      145.57194     -16902.035    
    616000   1.0848024      294.68453      412.54226     -16897.282    
    617000   1.085682       285.27067      24.358882     -16955.217    
    618000   1.0836157      293.31779      125.85232     -16845.29     
    619000   1.0700616      293.99567     -310.05665     -16832.4      
    620000   1.0829815      291.53086      94.35671      -16820.865    
    621000   1.0853683      300.48026     -672.0519      -16761.912    
    622000   1.0761618      309.72762     -9.9915652     -16759.164    
    623000   1.0752793      303.0006       80.62292      -16780.178    
    624000   1.0724397      289.29176     -622.60947     -16872.118    
    625000   1.0737161      293.86059     -269.48957     -16768.708    
    626000   1.0732431      297.96541     -542.94078     -16829.548    
    627000   1.0803824      295.14169     -709.64381     -16860.736    
    628000   1.091393       299.36083      251.00487     -16792.845    
    629000   1.0891573      301.76752      515.49293     -16854.334    
    630000   1.090877       295.71655      88.194144     -16847.58     
    631000   1.0826602      293.8278      -595.74796     -16738.396    
    632000   1.0767879      299.7422       169.22445     -16791.97     
    633000   1.0723478      290.38556     -1027.146      -16849.966    
    634000   1.0727802      301.44485     -691.75527     -16763.004    
    635000   1.0778814      295.37227     -692.69582     -16855.831    
    636000   1.0767544      304.19455     -46.053908     -16752.25     
    637000   1.0784012      289.37044      393.3263      -16862.269    
    638000   1.0726808      296.35589     -859.74591     -16792.548    
    639000   1.0852331      298.59474      252.69308     -16812.666    
    640000   1.0746793      305.16531      39.241575     -16783.565    
    641000   1.0750804      298.31144     -111.04772     -16850.76     
    642000   1.0838552      290.30747      331.78816     -16899.085    
    643000   1.0843079      294.05978      132.73511     -16790.898    
    644000   1.0921989      300.20243      542.6286      -16817.149    
    645000   1.0859361      294.41687     -691.06861     -16758.423    
    646000   1.0945587      296.28848      556.36721     -16840.706    
    647000   1.0795717      298.5884       191.67684     -16862.189    
    648000   1.0734924      302.60986     -312.37127     -16795.286    
    649000   1.0780862      296.1786      -265.4868      -16933.903    
    650000   1.0865716      292.80162      661.35555     -16831.611    
    651000   1.0726136      295.53885      180.07212     -16689.177    
    652000   1.0810127      295.53184      499.25351     -16720.781    
    653000   1.0785339      299.38697      270.34195     -16800.288    
    654000   1.0684544      304.74688     -283.3397      -16771.052    
    655000   1.0912986      291.34382      960.11891     -16857.217    
    656000   1.0741971      306.05356      169.63955     -16696.484    
    657000   1.0807982      292.77405      122.53925     -16758.331    
    658000   1.0748016      306.24141     -51.316358     -16822.233    
    659000   1.0772798      303.31431     -179.85035     -16753.655    
    660000   1.073918       296.86128     -327.78152     -16744.361    
    661000   1.0765945      305.14085     -273.62101     -16727.492    
    662000   1.0856394      292.08988      173.50497     -16882.255    
    663000   1.0901045      306.26065      311.48591     -16716.749    
    664000   1.0926198      307.19828      351.83544     -16707.272    
    665000   1.0959628      293.88018      299.02698     -16840.119    
    666000   1.0738119      294.93321      180.27568     -16745.837    
    667000   1.0828505      295.21401     -78.077955     -16902.195    
    668000   1.0846362      295.33403     -30.55104      -16798.219    
    669000   1.0890317      291.69112      358.96358     -16874.655    
    670000   1.0900714      294.35598      105.39611     -16763.968    
    671000   1.0829888      307.60745     -241.48135     -16725.842    
    672000   1.0853347      299.71527     -200.64508     -16692.479    
    673000   1.0785223      293.8631      -466.92295     -16754.528    
    674000   1.0877297      296.23535     -818.63478     -16815.539    
    675000   1.0808467      305.39755      295.60022     -16817.096    
    676000   1.0896991      293.42284      214.03256     -16871.475    
    677000   1.0917071      296.84584      94.933234     -16897.785    
    678000   1.0750815      300.68925      211.00216     -16742.503    
    679000   1.0704463      291.45993      34.097059     -16773.777    
    680000   1.0679492      302.74381     -232.78517     -16738.596    
    681000   1.0796766      303.85895      336.59122     -16812.793    
    682000   1.0822906      301.72889      530.32819     -16787.798    
    683000   1.0663896      290.32605     -49.672861     -16908.771    
    684000   1.0763         291.63622     -496.70479     -16842.151    
    685000   1.0880484      308.97846      159.66537     -16777.256    
    686000   1.0830971      302.26639     -76.354879     -16799.343    
    687000   1.0762333      299.74715     -733.67731     -16795.481    
    688000   1.0907301      287.02376      200.2841      -16996.095    
    689000   1.0804322      296.14599      299.18681     -16841.965    
    690000   1.0818109      290.64626     -67.070955     -16982.118    
    691000   1.0762225      295.15812     -950.16849     -16797.652    
    692000   1.0957806      297.49796      40.532282     -16892.446    
    693000   1.0822599      290.84786     -643.70359     -16845.649    
    694000   1.0765285      302.58485     -213.72804     -16749.999    
    695000   1.0768421      296.6141      -72.278344     -16951.8      
    696000   1.0828422      300.97265      507.33046     -16810.131    
    697000   1.0895156      304.599        676.12295     -16770.104    
    698000   1.086492       307.67224      119.67522     -16832        
    699000   1.0856106      297.91593      348.69711     -16876.679    
    700000   1.0855881      298.29353      398.76768     -16836.12     
    701000   1.0825337      289.21593     -409.26753     -16826.416    
    702000   1.0786694      293.72836     -603.89722     -16853.251    
    703000   1.0878873      298.28805      566.82316     -16776.047    
    704000   1.0699944      298.07603     -53.345941     -16821.331    
    705000   1.0852096      295.29595      547.48872     -16799.03     
    706000   1.0753059      306.11133     -656.67434     -16805.062    
    707000   1.0875518      300.63177      385.07241     -16823.656    
    708000   1.0899162      296.37016      229.73045     -16776.711    
    709000   1.0931659      293.40011      79.834219     -16845.588    
    710000   1.085487       291.65051      73.784198     -16861.79     
    711000   1.0773674      299.54095      463.01909     -16794.475    
    712000   1.0626586      291.52088     -711.32533     -16834.428    
    713000   1.0630532      289.04806     -487.28138     -16861.816    
    714000   1.0866339      293.92509      738.11833     -16860.863    
    715000   1.080978       302.79214      73.92702      -16790.005    
    716000   1.0756677      290.49418      257.56679     -16916.594    
    717000   1.091038       299.83696      157.07785     -16812.046    
    718000   1.0748171      299.22357     -601.28687     -16788.885    
    719000   1.0768956      303.0688      -143.89476     -16760.787    
    720000   1.0831244      301.76244      25.312246     -16832.721    
    721000   1.0800985      296.68044      723.54073     -16885.039    
    722000   1.0696934      291.39178     -437.25628     -16710.038    
    723000   1.0874466      291.94308     -127.84544     -16795.949    
    724000   1.0980791      303.55382      449.38811     -16885.733    
    725000   1.0887938      302.21339      980.67852     -16744.242    
    726000   1.0729299      298.61391     -393.136       -16829.289    
    727000   1.0739769      298.38148     -1016.3406     -16839.167    
    728000   1.0770029      295.72286     -319.38285     -16849.956    
    729000   1.0756745      296.57995     -351.25457     -16828.949    
    730000   1.0754187      298.13068     -400.92204     -16862.743    
    731000   1.0694171      297.77161     -265.69946     -16839.924    
    732000   1.088224       293.92847      549.23316     -16851.332    
    733000   1.0842657      302.30745      343.33424     -16723.925    
    734000   1.0806979      299.65423      204.61        -16809.715    
    735000   1.0976541      305.68157      160.63682     -16789.563    
    736000   1.0803449      295.69882      195.75661     -16828.232    
    737000   1.0787191      297.11819      242.23678     -16817.367    
    738000   1.0820802      286.711        853.99412     -16835.446    
    739000   1.0792616      293.84177     -105.00516     -16915.969    
    740000   1.0922804      295.36448      468.14512     -16808.337    
    741000   1.0860332      287.58995      329.70957     -16923.016    
    742000   1.0879351      289.16579      256.16381     -16869.877    
    743000   1.0794265      286.02922     -335.55478     -16873.096    
    744000   1.0869431      302.11448      1184.2665     -16763.747    
    745000   1.0738793      289.05798     -502.44179     -16865.266    
    746000   1.0706669      293.62225     -91.726003     -16851.087    
    747000   1.0786452      292.58387     -1264.609      -16889.857    
    748000   1.0778116      303.60178     -302.61877     -16745.132    
    749000   1.0825532      301.75403     -87.885929     -16789.532    
    750000   1.0701314      298.96059     -55.113366     -16824.013    
    751000   1.0875442      296.54169      423.29724     -16880.396    
    752000   1.0840748      296.29712     -20.770325     -16775.834    
    753000   1.0889574      295.53562      1367.1855     -16771.493    
    754000   1.0789385      305.16652      1.6036276     -16761.98     
    755000   1.0656958      293.70883     -119.73515     -16854.672    
    756000   1.0829922      298.35177     -605.94649     -16792.27     
    757000   1.0839377      302.81493     -345.00405     -16715.288    
    758000   1.0771156      297.8363      -3.6549733     -16857.884    
    759000   1.0798579      285.7984       391.46508     -16935.178    
    760000   1.0786017      301.2976      -344.29023     -16755.235    
    761000   1.0797158      294.50474     -348.27505     -16840.347    
    762000   1.0860585      287.58498     -65.735283     -16919.283    
    763000   1.0780537      295.5269      -333.21526     -16839.532    
    764000   1.0843429      295.44339     -627.02655     -16797.68     
    765000   1.088829       299.9845       159.3223      -16842.307    
    766000   1.0871246      297.35772     -461.42323     -16782.296    
    767000   1.0895435      290.77318      316.02839     -16862.56     
    768000   1.0992117      296.18657      728.10071     -16805.283    
    769000   1.0900087      292.95155     -510.87599     -16885.308    
    770000   1.0774538      296.3964      -244.27387     -16769.34     
    771000   1.0790723      302.03542     -597.3872      -16754.075    
    772000   1.0859917      301.10505     -576.10208     -16905.047    
    773000   1.0890944      301.67643      771.1922      -16813.099    
    774000   1.0687171      303.007       -1294.2396     -16782.181    
    775000   1.075792       296.13807      73.244017     -16866.148    
    776000   1.0751885      296.89929      390.01324     -16852.284    
    777000   1.0718058      296.10783      329.20333     -16784.496    
    778000   1.0673506      305.46982     -622.71941     -16746.854    
    779000   1.0910849      296.99182      361.53679     -16805.678    
    780000   1.0810729      300.72735      0.47063835    -16803.418    
    781000   1.0762232      291.8137       444.54128     -16820.434    
    782000   1.0713894      307.88002     -371.3153      -16709.604    
    783000   1.0820983      294.29161     -819.8871      -16969.101    
    784000   1.0760866      297.98809      393.71426     -16762.386    
    785000   1.0854133      300.37193      444.40406     -16888.764    
    786000   1.0860034      302.54149     -169.52621     -16807.598    
    787000   1.0816322      298.38697      221.14491     -16770.091    
    788000   1.083243       295.95263     -375.75322     -16818.907    
    789000   1.088598       297.70524      838.37725     -16795.479    
    790000   1.0816813      295.08079     -231.59425     -16821.266    
    791000   1.0843637      288.60002     -506.21444     -16801.518    
    792000   1.0857154      293.52641      118.5515      -16875.948    
    793000   1.0830261      300.17712      437.89535     -16762.978    
    794000   1.0802282      298.10159     -410.12204     -16781.552    
    795000   1.0701511      294.60182     -237.5879      -16851.358    
    796000   1.0788374      280.44912      331.54446     -16943.247    
    797000   1.0751899      302.96447     -94.620252     -16749.54     
    798000   1.0829922      293.91827      104.80445     -16761.839    
    799000   1.0868034      303.33954      1164.0422     -16814.54     
    800000   1.0720742      291.90688     -570.52314     -16891.279    
    801000   1.0787771      305.47125      128.99596     -16757.181    
    802000   1.0758575      301.38686     -743.92801     -16779.644    
[...]
  10291000   1.0809968      289.26753      656.26708     -16268.175    
  10292000   1.0809968      298.44257     -41.354911     -16144.565    
  10293000   1.0809968      303.22234      89.696503     -16144.923    
  10294000   1.0809968      292.89273      211.02152     -16186.217    
  10295000   1.0809968      287.15664     -608.1274      -16283.472    
  10296000   1.0809968      293.78194     -958.23885     -16195.736    
  10297000   1.0809968      296.61062     -569.04973     -16151.376    
  10298000   1.0809968      301.31953      300.86805     -16087.834    
  10299000   1.0809968      302.47185     -275.67203     -16109.035    
  10300000   1.0809968      295.2167      -72.344901     -16178.632    
  10301000   1.0809968      292.16257      791.87714     -16160.673    
  10302000   1.0809968      287.81932      134.947       -16141.902    
  10303000   1.0809968      299.94816     -274.34838     -16133.188    
  10304000   1.0809968      297.79508     -370.33006     -16202.2      
  10305000   1.0809968      292.66065      90.593872     -16229.043    
  10306000   1.0809968      296.62674     -118.35894     -16209.722    
  10307000   1.0809968      297.33031     -137.58738     -16242.746    
  10308000   1.0809968      304.21242     -158.61044     -16086.811    
  10309000   1.0809968      298.86522      296.13603     -16262.493    
  10310000   1.0809968      297.93025      329.59176     -16194.407    
  10311000   1.0809968      297.51399      152.74103     -16102.508    
  10312000   1.0809968      287.59981     -18.700768     -16232.097    
  10313000   1.0809968      286.66736     -47.74758      -16248.88     
  10314000   1.0809968      292.04542     -198.2924      -16241.791    
  10315000   1.0809968      297.58909      270.93608     -16259.004    
  10316000   1.0809968      294.8765      -206.18672     -16205.865    
  10317000   1.0809968      302.77491      351.69245     -16149.082    
  10318000   1.0809968      288.45543     -31.384984     -16152.843    
  10319000   1.0809968      293.11163     -255.58318     -16187.83     
  10320000   1.0809968      293.2085       106.72043     -16144.034    
  10321000   1.0809968      297.44153      84.004705     -16083.756    
  10322000   1.0809968      298.14536      311.37879     -16141.834    
  10323000   1.0809968      297.62874      68.059591     -16139.097    
  10324000   1.0809968      299.04519      237.72473     -16167.622    
  10325000   1.0809968      289.19874      100.37417     -16205.157    
  10326000   1.0809968      299.64596     -27.299505     -16110.137    
  10327000   1.0809968      297.39103     -351.40712     -16221.596    
  10328000   1.0809968      289.8024      -858.49345     -16128.836    
  10329000   1.0809968      292.57156     -939.4078      -16277.835    
  10330000   1.0809968      299.30275     -357.84687     -16178.434    
  10331000   1.0809968      290.39957      700.55804     -16307.151    
  10332000   1.0809968      293.11847     -83.287272     -16189.655    
  10333000   1.0809968      291.66165      61.790684     -16185.811    
  10334000   1.0809968      297.5768      -663.16005     -16259.952    
  10335000   1.0809968      297.51054      114.28638     -16181.926    
  10336000   1.0809968      286.13145     -50.495737     -16266.796    
  10337000   1.0809968      301.66165      549.07358     -16223.662    
  10338000   1.0809968      294.3265      -831.00567     -16283.584    
  10339000   1.0809968      297.38301     -974.32752     -16270.683    
  10340000   1.0809968      296.95044      304.98961     -16217.387    
  10341000   1.0809968      301.47532      385.24518     -16044.521    
  10342000   1.0809968      294.08597      12.409972     -16120.142    
  10343000   1.0809968      306.65472     -61.32116      -16106.059    
  10344000   1.0809968      293.10874      322.8524      -16193.723    
  10345000   1.0809968      282.24525      251.94277     -16290.6      
  10346000   1.0809968      310.90178      274.5269      -16168.302    
  10347000   1.0809968      295.93575      195.16462     -16202.427    
  10348000   1.0809968      289.88508     -154.42126     -16250.175    
  10349000   1.0809968      288.06816     -655.73056     -16142.824    
  10350000   1.0809968      289.50574     -341.9682      -16272.181    
  10351000   1.0809968      296.51308     -540.61476     -16273.517    
  10352000   1.0809968      299.56688      194.00136     -16251.585    
  10353000   1.0809968      298.24752     -73.925852     -16184.056    
  10354000   1.0809968      293.49685      284.06696     -16162.248    
  10355000   1.0809968      292.28964      578.97597     -16157.958    
  10356000   1.0809968      285.15091     -275.35968     -16335.765    
  10357000   1.0809968      289.45013      26.961339     -16189.034    
  10358000   1.0809968      291.08768     -141.20453     -16237.211    
  10359000   1.0809968      298.50282      56.262583     -16259.671    
  10360000   1.0809968      286.95491      531.5524      -16244.363    
  10361000   1.0809968      296.22528     -364.19538     -16227.778    
  10362000   1.0809968      292.41792      115.71697     -16228.071    
  10363000   1.0809968      288.55        -314.01997     -16189.169    
  10364000   1.0809968      285.62971     -849.81128     -16189.161    
  10365000   1.0809968      303.59878      483.92647     -16129.71     
  10366000   1.0809968      302.62319      738.05068     -16069.229    
  10367000   1.0809968      287.39139     -36.533975     -16245.64     
  10368000   1.0809968      284.12214     -298.09139     -16268.591    
  10369000   1.0809968      297.27134     -152.3727      -16297.636    
  10370000   1.0809968      291.09023     -416.91791     -16180.815    
  10371000   1.0809968      293.12912     -610.46977     -16198.464    
  10372000   1.0809968      300.00197      1313.0746     -16168.474    
  10373000   1.0809968      296.17349     -7.687037      -16222.04     
  10374000   1.0809968      294.0595      -181.45994     -16121.441    
  10375000   1.0809968      293.57218     -461.50344     -16184.338    
  10376000   1.0809968      294.89276      769.56392     -16187.525    
  10377000   1.0809968      295.61292     -305.88759     -16113.108    
  10378000   1.0809968      294.76792     -27.790194     -16089.687    
  10379000   1.0809968      292.18989     -839.62727     -16140.081    
  10380000   1.0809968      298.33337     -485.35001     -16062.599    
  10381000   1.0809968      295.25377      220.53561     -16219.197    
  10382000   1.0809968      296.92246     -154.80834     -16264.949    
  10383000   1.0809968      297.95875     -925.54457     -16215.491    
  10384000   1.0809968      297.81586     -340.92555     -16121.423    
  10385000   1.0809968      292.33729      194.52405     -16237.327    
  10386000   1.0809968      305.08214      658.25899     -16118.974    
  10387000   1.0809968      303.64576      137.42549     -16113.754    
  10388000   1.0809968      292.39509      449.07509     -16237.101    
  10389000   1.0809968      290.21902     -643.1631      -16168.224    
  10390000   1.0809968      296.10818     -111.576       -16144.553    
  10391000   1.0809968      295.38781      515.32765     -16194.165    
  10392000   1.0809968      293.85185      121.3907      -16135.208    
  10393000   1.0809968      294.53433      396.17424     -16262.669    
  10394000   1.0809968      292.65254     -72.046781     -16147.27     
  10395000   1.0809968      295.77482     -733.83548     -16209.14     
  10396000   1.0809968      302.20362     -202.03308     -16149.422    
  10397000   1.0809968      295.16198     -87.950964     -16194.503    
  10398000   1.0809968      293.24558     -490.24349     -16224.001    
  10399000   1.0809968      295.12928     -591.13336     -16215.464    
  10400000   1.0809968      293.4705      -213.83079     -16071.992    
  10401000   1.0809968      304.82412     -180.35795     -16241.489    
  10402000   1.0809968      290.19866     -110.04642     -16118.749    
  10403000   1.0809968      300.83198      36.552862     -16211.407    
  10404000   1.0809968      298.34227     -156.281       -16046.703    
  10405000   1.0809968      293.30245     -90.310636     -16208.344    
  10406000   1.0809968      299.1823      -471.58035     -16088.296    
  10407000   1.0809968      297.62801      702.11128     -16133.418    
  10408000   1.0809968      297.02307     -106.35883     -16144.919    
  10409000   1.0809968      286.71589      632.85981     -16242.06     
  10410000   1.0809968      291.19582     -534.39712     -16181.572    
  10411000   1.0809968      305.24503      689.25876     -16151.969    
  10412000   1.0809968      299.75231      98.098969     -16225.913    
  10413000   1.0809968      303.43045     -419.65534     -16066.906    
  10414000   1.0809968      294.5855      -56.213266     -16270.201    
  10415000   1.0809968      297.37462     -72.705134     -16219.015    
  10416000   1.0809968      304.52203     -92.425203     -16090.717    
  10417000   1.0809968      292.94337      445.2914      -16244.694    
  10418000   1.0809968      299.01086     -337.44058     -16065.883    
  10419000   1.0809968      303.61609      471.18991     -16125.537    
  10420000   1.0809968      291.87935      449.53301     -16199.304    
  10421000   1.0809968      291.88914      37.864478     -16172.577    
  10422000   1.0809968      288.69663      322.8274      -16208.889    
  10423000   1.0809968      292.71395     -188.87306     -16148.184    
  10424000   1.0809968      298.20177     -557.64722     -16172.285    
  10425000   1.0809968      305.83294     -828.00647     -16108.856    
  10426000   1.0809968      298.87052      492.21327     -16201.35     
  10427000   1.0809968      286.89574      77.26203      -16232.735    
  10428000   1.0809968      308.40866      470.27536     -16037.558    
  10429000   1.0809968      298.31016      281.5006      -16175.65     
  10430000   1.0809968      289.59723      392.32571     -16150.244    
  10431000   1.0809968      302.6977       114.72026     -16155.618    
  10432000   1.0809968      295.2269      -141.40673     -16097.371    
  10433000   1.0809968      303.59567      330.52011     -16098.22     
  10434000   1.0809968      293.62967      235.90427     -16222.561    
  10435000   1.0809968      292.71464      423.53461     -16261.049    
  10436000   1.0809968      295.37897      257.06295     -16241.47     
  10437000   1.0809968      302.88213     -698.70755     -16217.158    
  10438000   1.0809968      294.64653      448.53506     -16204.432    
  10439000   1.0809968      294.96435     -175.3604      -16206.621    
  10440000   1.0809968      295.21164      161.66546     -16215.384    
  10441000   1.0809968      290.65406     -635.18071     -16252.723    
  10442000   1.0809968      301.15893      482.29952     -16203.853    
  10443000   1.0809968      297.03937      27.586264     -16329.211    
  10444000   1.0809968      300.33197      351.07887     -16162.033    
  10445000   1.0809968      298.22031     -494.82161     -16193.462    
  10446000   1.0809968      291.79863      260.9182      -16262.205    
  10447000   1.0809968      293.33429      437.01077     -16217.691    
  10448000   1.0809968      300.89415     -255.48802     -16089.312    
  10449000   1.0809968      296.16687     -77.736844     -16317.301    
  10450000   1.0809968      294.97895      93.425946     -16189.524    
  10451000   1.0809968      298.5617      -98.573794     -16087.689    
  10452000   1.0809968      297.83064     -370.71193     -16168.019    
  10453000   1.0809968      302.71759      821.09027     -16094.03     
  10454000   1.0809968      295.43079     -251.58107     -16224.179    
  10455000   1.0809968      292.99192      155.45498     -16101.034    
  10456000   1.0809968      292.81791      3.4119552     -16158.875    
  10457000   1.0809968      302.55789     -155.04008     -16164.671    
  10458000   1.0809968      299.36101     -150.12482     -16161.826    
  10459000   1.0809968      293.35554      158.55476     -16153.369    
  10460000   1.0809968      292.69561      648.65585     -16203.526    
  10461000   1.0809968      299.35884      161.65809     -16202.831    
  10462000   1.0809968      299.53205      1185.4125     -16124.862    
  10463000   1.0809968      295.30905      138.93838     -16224.831    
  10464000   1.0809968      292.99835     -199.91689     -16148.046    
  10465000   1.0809968      290.21745      109.3161      -16154.033    
  10466000   1.0809968      300.8562       234.36161     -16135.564    
  10467000   1.0809968      295.59606     -188.32078     -16106.935    
  10468000   1.0809968      293.704       -353.22674     -16202.566    
  10469000   1.0809968      288.29751     -822.27926     -16174.803    
  10470000   1.0809968      295.12767     -264.02188     -16247.187    
  10471000   1.0809968      296.97393     -276.15425     -16168.287    
  10472000   1.0809968      295.87715     -216.07182     -16185.412    
  10473000   1.0809968      292.51309      509.42944     -16230.549    
  10474000   1.0809968      291.51962      408.85058     -16185.544    
  10475000   1.0809968      290.68357     -654.68556     -16283.541    
  10476000   1.0809968      297.17808     -204.38304     -16149.833    
  10477000   1.0809968      303.81639      210.8378      -16151.486    
  10478000   1.0809968      298.22009     -365.51        -16108.886    
  10479000   1.0809968      292.28596      773.96589     -16114.004    
  10480000   1.0809968      301.09852     -85.731157     -16102.187    
  10481000   1.0809968      291.67591      245.60837     -16236.266    
  10482000   1.0809968      295.43192      197.77393     -16201.016    
  10483000   1.0809968      294.94532     -693.99639     -16080.075    
  10484000   1.0809968      295.32449      122.05846     -16186.24     
  10485000   1.0809968      298.28533     -549.02657     -16204.74     
  10486000   1.0809968      295.02101      64.774631     -16188.987    
  10487000   1.0809968      296.84883     -214.06468     -16211.223    
  10488000   1.0809968      294.00384     -172.34921     -16160.113    
  10489000   1.0809968      292.36657     -569.78827     -16130.682    
  10490000   1.0809968      301.69971     -269.45885     -16219.87     
  10491000   1.0809968      294.03521      202.29375     -16208.464    
  10492000   1.0809968      288.7278       73.508131     -16229.804    
  10493000   1.0809968      296.94151      657.42012     -16095.943    
  10494000   1.0809968      295.15529      47.601165     -16119.566    
  10495000   1.0809968      299.25554      897.32881     -16111.848    
  10496000   1.0809968      283.91778      454.97753     -16246.864    
  10497000   1.0809968      302.53507      130.19268     -16146.21     
  10498000   1.0809968      297.06588      272.47352     -16185.629    
  10499000   1.0809968      292.26048     -50.051693     -16160.675    
  10500000   1.0809968      296.34817     -448.42345     -16190.407    
  10501000   1.0809968      294.56937      274.03508     -16108.456    
  10502000   1.0809968      294.93805     -103.5209      -16082.463    
  10503000   1.0809968      300.90862      135.91901     -16249.828    
  10504000   1.0809968      292.51912     -138.46495     -16125.502    
  10505000   1.0809968      298.97763      309.22796     -16216.896    
  10506000   1.0809968      293.01726      71.96976      -16180.781    
  10507000   1.0809968      289.72456     -172.0281      -16122.796    
  10508000   1.0809968      301.77145     -836.58019     -16030.824    
  10509000   1.0809968      300.78676     -431.89075     -16175.788    
  10510000   1.0809968      302.17072     -158.434       -16213.201    
  10511000   1.0809968      296.20327      363.30583     -16187.928    
  10512000   1.0809968      297.98601      1.1466156     -16086.766    
  10513000   1.0809968      295.18111      27.553939     -16037.923    
  10514000   1.0809968      291.82164     -1154.7024     -16185.915    
  10515000   1.0809968      298.23176     -106.17512     -16093.711    
  10516000   1.0809968      296.8003       420.76105     -16148.703    
  10517000   1.0809968      296.58341     -31.70421      -16195.2      
  10518000   1.0809968      291.01404      273.71956     -16149.112    
  10519000   1.0809968      296.33099      726.47214     -16105.465    
  10520000   1.0809968      293.04272     -164.81548     -16197.672    
  10521000   1.0809968      291.17271     -202.3961      -16205.467    
  10522000   1.0809968      298.21618      480.11227     -16213.07     
  10523000   1.0809968      293.37101     -1034.0186     -16248.42     
  10524000   1.0809968      289.57459      318.22965     -16244.596    
  10525000   1.0809968      298.67598     -355.95361     -16207.291    
  10526000   1.0809968      290.99227      512.07525     -16160.734    
  10527000   1.0809968      297.59451     -844.72482     -16174.668    
  10528000   1.0809968      300.64741      353.19921     -16097.446    
  10529000   1.0809968      299.08914     -240.99334     -16130.036    
  10530000   1.0809968      301.47264      238.54982     -16168.238    
  10531000   1.0809968      301.16604      488.44354     -16179.42     
  10532000   1.0809968      294.48361      279.50579     -16214.691    
  10533000   1.0809968      297.02786      96.035014     -16227.218    
  10534000   1.0809968      295.61919      72.035511     -16112.529    
  10535000   1.0809968      298.44068      333.95992     -16154.971    
  10536000   1.0809968      296.3703      -249.34159     -16219.497    
  10537000   1.0809968      293.446       -70.615632     -16126.85     
  10538000   1.0809968      298.77601      445.4368      -16102.429    
  10539000   1.0809968      295.22605     -144.55246     -16192.244    
  10540000   1.0809968      296.4575      -795.53418     -16196.944    
  10541000   1.0809968      296.85724     -10.5819       -16210.692    
  10542000   1.0809968      290.0769      -1246.7412     -16278.357    
  10543000   1.0809968      304.82921      59.389039     -16104.712    
  10544000   1.0809968      289.41631     -400.60882     -16132.369    
  10545000   1.0809968      290.04621      196.96085     -16190.588    
  10546000   1.0809968      291.35047     -839.595       -16172.041    
  10547000   1.0809968      291.10773     -221.2042      -16227.291    
  10548000   1.0809968      286.68613      380.87156     -16307.537    
  10549000   1.0809968      299.88536     -163.53974     -16131.655    
  10550000   1.0809968      303.26142     -38.835988     -16096.963    
Loop time of 1703.19 on 24 procs for 500000 steps with 3162 atoms

Performance: 50.728 ns/day, 0.473 hours/ns, 293.568 timesteps/s
99.4% CPU use with 24 MPI tasks x no OpenMP threads

MPI task timing breakdown:
Section |  min time  |  avg time  |  max time  |%varavg| %total
---------------------------------------------------------------
Pair    | 541.94     | 583.21     | 630.81     | 104.7 | 34.24
Bond    | 2.1726     | 2.3711     | 2.5437     |   6.3 |  0.14
Kspace  | 358        | 402.68     | 441.91     | 121.6 | 23.64
Neigh   | 163.96     | 175.54     | 186.34     |  72.3 | 10.31
Comm    | 97.955     | 108.11     | 118.97     |  64.6 |  6.35
Output  | 69.833     | 69.87      | 70.469     |   1.5 |  4.10
Modify  | 346.81     | 353.81     | 361.29     |  25.8 | 20.77
Other   |            | 7.596      |            |       |  0.45

Nlocal:         131.75 ave         140 max         117 min
Histogram: 1 0 0 2 4 1 4 8 3 1
Nghost:        4583.58 ave        4612 max        4553 min
Histogram: 1 1 3 4 3 4 2 1 2 3
Neighs:        52922.5 ave       58040 max       45962 min
Histogram: 1 1 2 3 1 3 4 5 2 2

Total # of neighbors = 1270139
Ave neighs/atom = 401.68849
Ave special neighs/atom = 2.0341556
Neighbor list builds = 110180
Dangerous builds = 0

quit
