LAMMPS (23 Jun 2022 - Update 1)
Reading data file ...
  orthogonal box = (0 0 0) to (32.221477 32.221477 32.221477)
  2 by 4 by 4 MPI processor grid
  reading atoms ...
  3324 atoms
  scanning bonds ...
  4 = max bonds/atom
  scanning angles ...
  6 = max angles/atom
  reading bonds ...
  2216 bonds
  reading angles ...
  1216 angles
Finding 1-2 1-3 1-4 neighbors ...
  special bond factors lj:    0        0        0       
  special bond factors coul:  0        0        0       
     4 = max # of 1-2 neighbors
     3 = max # of 1-3 neighbors
     3 = max # of 1-4 neighbors
     4 = max # of special neighbors
  special bonds CPU = 0.001 seconds
  read_data CPU = 0.018 seconds
Setting atom values ...
  1000 settings made for charge
Setting atom values ...
  2000 settings made for charge
Setting atom values ...
  72 settings made for charge
Setting atom values ...
  72 settings made for charge
Setting atom values ...
  36 settings made for charge
Setting atom values ...
  144 settings made for charge
1000 atoms in group wat
72 atoms in group Li
36 atoms in group S
  create bodies CPU = 0.001 seconds
  1108 rigid bodies with 3324 atoms
  1.4900047 = max distance from body owner to body atom
PPPM initialization ...
  extracting TIP4P info from pair style
  using 12-bit tables for long-range coulomb (../kspace.cpp:342)
  G vector (1/distance) = 0.30999641
  grid = 30 30 30
  stencil order = 5
  estimated absolute RMS force accuracy = 0.0037771527
  estimated relative force accuracy = 1.1374783e-05
  using double precision KISS FFT
  3d grid and FFT values/proc = 4950 960
Generated 0 of 15 mixed pair_coeff terms from arithmetic mixing rule
Neighbor list info ...
  update every 1 steps, delay 0 steps, check yes
  max neighbors/atom: 2000, page size: 100000
  master list distance cutoff = 12.3092
  ghost atom cutoff = 12.3092
  binsize = 6.1546, bins = 6 6 6
  1 neighbor lists, perpetual/occasional/extra = 1 0 0
  (1) pair lj/cut/tip4p/long, perpetual
      attributes: half, newton on
      pair build: half/bin/newton
      stencil: half/bin/3d
      bin: standard
Setting up Verlet run ...
  Unit style    : real
  Current step  : 0
  Time step     : 0.001
Per MPI rank memory allocation (min/avg/max) = 15.44 | 15.48 | 15.52 Mbytes
   Step        Density          Temp          Press          TotEng    
         0   1.090712       327.26538      14719526       6013.9559    
      1000   1.0895035      354.09962      97431.057      5960.2271    
      2000   1.0864634      432.35195      93243.692      5823.1004    
      3000   1.0816824      554.15966      86240.188      5594.522     
      4000   1.0753128      706.12824      76541.299      5255.0615    
      5000   1.0675648      877.48737      65804.038      4818.2924    
      6000   1.0586774      1057.5948      55830.46       4301.546     
      7000   1.0488912      1233.3228      45115.825      3706.0189    
      8000   1.0384618      1393.1207      35136.284      3036.8099    
      9000   1.027636       1529.2014      26458.149      2311.7309    
     10000   1.0166372      1635.6456      18605.743      1543.9628    
Loop time of 27.6841 on 32 procs for 10000 steps with 3324 atoms

Performance: 0.031 ns/day, 769.003 hours/ns, 361.218 timesteps/s
99.5% CPU use with 32 MPI tasks x no OpenMP threads

MPI task timing breakdown:
Section |  min time  |  avg time  |  max time  |%varavg| %total
---------------------------------------------------------------
Pair    | 9.3751     | 11.351     | 13.428     |  30.8 | 41.00
Bond    | 0.03465    | 0.043064   | 0.051861   |   2.0 |  0.16
Kspace  | 5.0194     | 7.0329     | 9.0825     |  39.4 | 25.40
Neigh   | 0.0022275  | 0.002398   | 0.0025476  |   0.2 |  0.01
Comm    | 1.5329     | 1.6409     | 1.7537     |   3.7 |  5.93
Output  | 0.00057912 | 0.025926   | 0.81076    |  87.5 |  0.09
Modify  | 6.1014     | 7.2269     | 7.4744     |   9.3 | 26.11
Other   |            | 0.3614     |            |       |  1.31

Nlocal:        103.875 ave         116 max          95 min
Histogram: 5 4 2 6 4 2 4 1 1 3
Nghost:        4107.75 ave        4126 max        4090 min
Histogram: 2 3 5 3 4 2 3 3 5 2
Neighs:        38456.6 ave       45207 max       32940 min
Histogram: 2 5 3 2 8 3 3 3 1 2

Total # of neighbors = 1230610
Ave neighs/atom = 370.21961
Ave special neighs/atom = 2.0649819
Neighbor list builds = 2
Dangerous builds = 0
PPPM initialization ...
  extracting TIP4P info from pair style
  using 12-bit tables for long-range coulomb (../kspace.cpp:342)
  G vector (1/distance) = 0.31293268
  grid = 32 32 32
  stencil order = 5
  estimated absolute RMS force accuracy = 0.0030347809
  estimated relative force accuracy = 9.1391525e-06
  using double precision KISS FFT
  3d grid and FFT values/proc = 5175 1024
Generated 0 of 15 mixed pair_coeff terms from arithmetic mixing rule
Setting up Verlet run ...
  Unit style    : real
  Current step  : 10000
  Time step     : 0.01
Per MPI rank memory allocation (min/avg/max) = 15.47 | 15.5 | 15.53 Mbytes
   Step        Density          Temp          Press          TotEng    
     10000   1.0166372      1635.6456      9482.1051      1543.9192    
     11000   0.92445647     1425.9417     -10472.606     -5309.8352    
     12000   0.87524217     1015.4196     -11953.805     -8719.9561    
     13000   0.85631994     845.22077     -11099.601     -10897.388    
     14000   0.85952282     714.03844     -8926.1316     -12535.405    
     15000   0.87919989     641.92416     -8110.2522     -13809.896    
     16000   0.91266946     593.98822     -6472.7132     -14924.395    
     17000   0.95590121     570.21178     -3951.4476     -15878.384    
     18000   1.0020067      544.8446      -62.76576      -16665.248    
     19000   1.0436555      536.75335      2198.9922     -17306.922    
     20000   1.077464       517.80719      3321.3228     -17921.135    
Loop time of 25.2244 on 32 procs for 10000 steps with 3324 atoms

Performance: 0.343 ns/day, 70.068 hours/ns, 396.441 timesteps/s
99.6% CPU use with 32 MPI tasks x no OpenMP threads

MPI task timing breakdown:
Section |  min time  |  avg time  |  max time  |%varavg| %total
---------------------------------------------------------------
Pair    | 8.1598     | 9.9909     | 12.165     |  30.6 | 39.61
Bond    | 0.035417   | 0.04298    | 0.053209   |   1.9 |  0.17
Kspace  | 5.3907     | 7.4973     | 9.3925     |  35.4 | 29.72
Neigh   | 0.016149   | 0.016655   | 0.017436   |   0.3 |  0.07
Comm    | 1.3963     | 1.48       | 1.59       |   3.6 |  5.87
Output  | 0.00039519 | 0.0004071  | 0.00063237 |   0.0 |  0.00
Modify  | 5.864      | 6.0331     | 6.0777     |   1.5 | 23.92
Other   |            | 0.1631     |            |       |  0.65

Nlocal:        103.875 ave         121 max          92 min
Histogram: 2 4 3 9 6 1 4 2 0 1
Nghost:        4186.41 ave        4230 max        4151 min
Histogram: 2 3 4 5 3 5 5 3 1 1
Neighs:        39461.9 ave       49493 max       32973 min
Histogram: 3 4 3 10 3 2 5 1 0 1

Total # of neighbors = 1262781
Ave neighs/atom = 379.89801
Ave special neighs/atom = 2.0649819
Neighbor list builds = 15
Dangerous builds = 0
PPPM initialization ...
  extracting TIP4P info from pair style
  using 12-bit tables for long-range coulomb (../kspace.cpp:342)
  G vector (1/distance) = 0.30970198
  grid = 30 30 30
  stencil order = 5
  estimated absolute RMS force accuracy = 0.0038233022
  estimated relative force accuracy = 1.1513761e-05
  using double precision KISS FFT
  3d grid and FFT values/proc = 4950 960
Generated 0 of 15 mixed pair_coeff terms from arithmetic mixing rule
Setting up Verlet run ...
  Unit style    : real
  Current step  : 20000
  Time step     : 0.1
Per MPI rank memory allocation (min/avg/max) = 15.44 | 15.48 | 15.52 Mbytes
   Step        Density          Temp          Press          TotEng    
     20000   1.077464       517.80719      4719.6751     -17921.157    
     21000   1.1761868      353.31329      590.14512     -21647.924    
     22000   1.1812409      320.17253     -1043.4442     -22547.572    
     23000   1.1777414      324.63418      322.19812     -22863.793    
     24000   1.1729069      317.21378     -63.393111     -23114.587    
     25000   1.1568392      327.90177     -248.63667     -23021.621    
     26000   1.1515565      318.37146     -708.72352     -23147.87     
     27000   1.1506995      326.8301       23.811701     -23113.471    
     28000   1.1396891      330.08449     -884.38336     -23109.316    
     29000   1.1543068      313.59872     -22.231997     -23233.074    
     30000   1.1474289      326.02282     -99.014559     -23203.986    
Loop time of 28.9518 on 32 procs for 10000 steps with 3324 atoms

Performance: 2.984 ns/day, 8.042 hours/ns, 345.402 timesteps/s
99.6% CPU use with 32 MPI tasks x no OpenMP threads

MPI task timing breakdown:
Section |  min time  |  avg time  |  max time  |%varavg| %total
---------------------------------------------------------------
Pair    | 10.946     | 12.666     | 14.545     |  23.4 | 43.75
Bond    | 0.036323   | 0.043494   | 0.052525   |   1.6 |  0.15
Kspace  | 5.4155     | 7.2821     | 9.0657     |  30.9 | 25.15
Neigh   | 0.11217    | 0.11727    | 0.12373    |   0.9 |  0.41
Comm    | 1.6207     | 1.716      | 1.863      |   4.1 |  5.93
Output  | 0.00038026 | 0.00039607 | 0.00062199 |   0.0 |  0.00
Modify  | 6.4365     | 6.777      | 7.0176     |   6.0 | 23.41
Other   |            | 0.349      |            |       |  1.21

Nlocal:        103.875 ave         119 max          92 min
Histogram: 2 2 8 2 8 3 1 3 2 1
Nghost:        4368.88 ave        4403 max        4341 min
Histogram: 1 3 4 7 7 4 1 2 1 2
Neighs:        42379.4 ave       52059 max       36139 min
Histogram: 2 8 3 4 6 4 2 0 1 2

Total # of neighbors = 1356140
Ave neighs/atom = 407.98436
Ave special neighs/atom = 2.0649819
Neighbor list builds = 95
Dangerous builds = 0
PPPM initialization ...
  extracting TIP4P info from pair style
  using 12-bit tables for long-range coulomb (../kspace.cpp:342)
  G vector (1/distance) = 0.31121376
  grid = 30 30 30
  stencil order = 5
  estimated absolute RMS force accuracy = 0.0035917335
  estimated relative force accuracy = 1.0816399e-05
  using double precision KISS FFT
  3d grid and FFT values/proc = 4950 960
Generated 0 of 15 mixed pair_coeff terms from arithmetic mixing rule
Setting up Verlet run ...
  Unit style    : real
  Current step  : 30000
  Time step     : 0.2
Per MPI rank memory allocation (min/avg/max) = 15.45 | 15.48 | 15.52 Mbytes
   Step        Density          Temp          Press          TotEng    
     30000   1.1474289      326.02282      2183.5268     -23203.983    
     31000   1.1372605      330.40519     -584.88711     -23197.378    
     32000   1.1393265      327.28567      54.309176     -23285.982    
     33000   1.1366723      316.30353      418.92768     -23341.957    
     34000   1.1403345      307.44462      414.36156     -23453.027    
     35000   1.1320914      327.42898     -90.187877     -23283.86     
     36000   1.1197229      324.68541     -723.51968     -23339.045    
     37000   1.1307509      326.06834      24.95339      -23384.508    
     38000   1.1383331      327.47898      211.69529     -23359.765    
     39000   1.1368914      341.2791       194.4378      -23248.576    
     40000   1.1338765      316.40978      101.99252     -23438.264    
Loop time of 28.7291 on 32 procs for 10000 steps with 3324 atoms

Performance: 6.015 ns/day, 3.990 hours/ns, 348.079 timesteps/s
99.6% CPU use with 32 MPI tasks x no OpenMP threads

MPI task timing breakdown:
Section |  min time  |  avg time  |  max time  |%varavg| %total
---------------------------------------------------------------
Pair    | 10.79      | 12.558     | 13.98      |  21.3 | 43.71
Bond    | 0.037036   | 0.043388   | 0.04807    |   1.5 |  0.15
Kspace  | 5.6155     | 7.0308     | 8.8652     |  28.6 | 24.47
Neigh   | 0.2666     | 0.27829    | 0.29214    |   1.4 |  0.97
Comm    | 1.6167     | 1.7125     | 1.8606     |   4.1 |  5.96
Output  | 0.00039321 | 0.00040717 | 0.00062987 |   0.0 |  0.00
Modify  | 6.4206     | 6.7631     | 6.9959     |   5.9 | 23.54
Other   |            | 0.3422     |            |       |  1.19

Nlocal:        103.875 ave         114 max          93 min
Histogram: 3 2 3 2 4 4 6 2 2 4
Nghost:        4338.84 ave        4374 max        4308 min
Histogram: 2 3 1 6 6 6 3 2 2 1
Neighs:        41846.8 ave       47832 max       36713 min
Histogram: 4 2 5 3 3 5 2 4 2 2

Total # of neighbors = 1339099
Ave neighs/atom = 402.8577
Ave special neighs/atom = 2.0649819
Neighbor list builds = 227
Dangerous builds = 0
PPPM initialization ...
  extracting TIP4P info from pair style
  using 12-bit tables for long-range coulomb (../kspace.cpp:342)
  G vector (1/distance) = 0.31092902
  grid = 30 30 30
  stencil order = 5
  estimated absolute RMS force accuracy = 0.0036343366
  estimated relative force accuracy = 1.0944697e-05
  using double precision KISS FFT
  3d grid and FFT values/proc = 4950 960
Generated 0 of 15 mixed pair_coeff terms from arithmetic mixing rule
Setting up Verlet run ...
  Unit style    : real
  Current step  : 40000
  Time step     : 0.5
Per MPI rank memory allocation (min/avg/max) = 15.45 | 15.48 | 15.52 Mbytes
   Step        Density          Temp          Press          TotEng    
     40000   1.1338765      316.40978      1264.322      -23438.264    
     41000   1.1352569      315.8597       62.390049     -23482.713    
     42000   1.1370397      317.89853     -205.53202     -23349.657    
     43000   1.1338166      316.75021      491.16113     -23500.385    
     44000   1.1313607      326.85347     -566.57202     -23368.822    
     45000   1.1256509      314.5718      -374.95842     -23528.884    
     46000   1.147495       330.69258      69.275259     -23366.321    
     47000   1.1438653      323.79412     -366.36355     -23395.866    
     48000   1.1390371      335.35501      318.22058     -23322.114    
     49000   1.1482377      329.8338      -401.20306     -23427.85     
     50000   1.1475609      331.06207      618.019       -23387.956    
Loop time of 29.4931 on 32 procs for 10000 steps with 3324 atoms

Performance: 14.648 ns/day, 1.639 hours/ns, 339.063 timesteps/s
99.6% CPU use with 32 MPI tasks x no OpenMP threads

MPI task timing breakdown:
Section |  min time  |  avg time  |  max time  |%varavg| %total
---------------------------------------------------------------
Pair    | 11.303     | 12.65      | 14.183     |  17.7 | 42.89
Bond    | 0.037979   | 0.043559   | 0.048379   |   1.1 |  0.15
Kspace  | 5.4011     | 6.9625     | 8.3468     |  24.2 | 23.61
Neigh   | 0.70782    | 0.7376     | 0.77364    |   2.2 |  2.50
Comm    | 1.6937     | 1.7928     | 1.9433     |   4.0 |  6.08
Output  | 0.00037035 | 0.00038695 | 0.00062467 |   0.0 |  0.00
Modify  | 6.5924     | 6.9556     | 7.2061     |   6.0 | 23.58
Other   |            | 0.3503     |            |       |  1.19

Nlocal:        103.875 ave         116 max          93 min
Histogram: 4 1 3 5 5 3 5 1 4 1
Nghost:        4368.31 ave        4405 max        4336 min
Histogram: 3 5 2 2 5 4 4 4 0 3
Neighs:        42361.5 ave       49907 max       34554 min
Histogram: 1 1 2 4 5 12 3 2 1 1

Total # of neighbors = 1355567
Ave neighs/atom = 407.81197
Ave special neighs/atom = 2.0649819
Neighbor list builds = 592
Dangerous builds = 0
  create bodies CPU = 0.000 seconds
  1108 rigid bodies with 3324 atoms
  1.4901158 = max distance from body owner to body atom
PPPM initialization ...
  extracting TIP4P info from pair style
  using 12-bit tables for long-range coulomb (../kspace.cpp:342)
  G vector (1/distance) = 0.31121652
  grid = 30 30 30
  stencil order = 5
  estimated absolute RMS force accuracy = 0.0035913234
  estimated relative force accuracy = 1.0815164e-05
  using double precision KISS FFT
  3d grid and FFT values/proc = 4950 960
Generated 0 of 15 mixed pair_coeff terms from arithmetic mixing rule
Setting up Verlet run ...
  Unit style    : real
  Current step  : 0
  Time step     : 2
Per MPI rank memory allocation (min/avg/max) = 15.45 | 15.48 | 15.52 Mbytes
   Step        Density          Temp          Press          TotEng    
         0   1.1475609      331.06207      2617.0199     -23387.955    
      1000   1.1421824      314.4213       610.75504     -23540.437    
      2000   1.1326171      321.53077      161.79411     -23527.182    
      3000   1.1448312      324.67775      548.46937     -23436.694    
      4000   1.1300062      321.42986     -474.585       -23464.616    
      5000   1.1362477      320.17751      248.06868     -23480.858    
      6000   1.1557294      318.70446      398.30513     -23488.39     
      7000   1.1264368      323.59329     -282.39408     -23484.751    
      8000   1.156298       320.03673      485.7574      -23568.935    
      9000   1.1439451      319.76589      269.49359     -23520.301    
     10000   1.1462466      312.15877      13.541477     -23622.845    
     11000   1.1382227      314.46549      670.52005     -23521.53     
     12000   1.1482726      310.66418     -671.9053      -23641.661    
     13000   1.1417805      318.97977      679.07272     -23569.88     
     14000   1.14794        320.37249      188.13507     -23458.243    
     15000   1.1451497      316.93267      537.09542     -23479.221    
     16000   1.1411371      315.69863     -707.81555     -23521.438    
     17000   1.1414629      318.04395      262.93349     -23498.156    
     18000   1.135897       309.86911     -608.96958     -23546.818    
     19000   1.1366937      314.04172     -638.95797     -23603.388    
     20000   1.1442367      323.73118      1040.2941     -23471.894    
     21000   1.1377092      317.52102     -211.47655     -23398.779    
     22000   1.1380954      321.55361     -122.43379     -23536.385    
     23000   1.1294517      310.64779     -582.25788     -23478.224    
     24000   1.1404657      318.86015      540.41016     -23474.13     
     25000   1.1334107      315.88486     -1081.1166     -23522.379    
     26000   1.1389981      326.00115      382.94148     -23522.44     
     27000   1.1424363      318.28518      271.04835     -23516.602    
     28000   1.142081       311.86376      413.91579     -23626.755    
     29000   1.1442275      319.15723      443.5802      -23397.311    
     30000   1.1405066      319.82974      204.36139     -23445.493    
     31000   1.1306195      319.80289     -608.94426     -23480.396    
     32000   1.1324701      316.5791      -410.35005     -23540.583    
     33000   1.1332516      320.93484     -528.36476     -23496.085    
     34000   1.1507079      311.58229      297.45934     -23511.444    
     35000   1.1422406      313.13403      268.1527      -23459.983    
     36000   1.1548248      331.3422       1071.0823     -23390.547    
     37000   1.150639       313.74896     -194.62325     -23603.529    
     38000   1.13516        317.06557     -841.43206     -23562.583    
     39000   1.125472       323.93725      278.12435     -23366.018    
     40000   1.1316137      321.36566     -533.40278     -23448.717    
     41000   1.1465033      325.25608     -43.010393     -23532.715    
     42000   1.1345619      314.48248      541.98374     -23537.928    
     43000   1.1302071      310.36165     -605.38619     -23471.942    
     44000   1.1554305      320.79799      31.581413     -23448.047    
     45000   1.1433377      320.04863      836.364       -23554.592    
     46000   1.1372464      331.71954     -429.50444     -23454.13     
     47000   1.1435583      314.95848      112.33603     -23584.028    
     48000   1.1489883      312.95849      380.13063     -23521.526    
     49000   1.1371115      327.31709      7.0545898     -23470.422    
     50000   1.1351043      319.87734     -589.28909     -23449.73     
     51000   1.1424818      321.6601       237.23136     -23515.038    
     52000   1.1460661      314.61079     -1039.2157     -23634.219    
     53000   1.1458318      319.63753      329.37606     -23531.542    
     54000   1.1426998      325.21317     -223.78609     -23498.712    
     55000   1.1444808      319.69706     -175.15033     -23498.601    
     56000   1.1467652      317.93103      897.7079      -23533.489    
     57000   1.1433301      324.666        740.24943     -23457.262    
     58000   1.1401268      317.39328      158.85511     -23488.688    
     59000   1.1442104      328.68344      286.47146     -23480.824    
     60000   1.1332049      320.79081      36.917644     -23437.256    
     61000   1.1320663      315.47703      204.81233     -23439.959    
     62000   1.1226978      320.66238     -379.69042     -23487.314    
     63000   1.1283343      320.43967      920.68629     -23445.877    
     64000   1.1488046      322.27488      301.07084     -23529.57     
     65000   1.1354374      318.02258      1328.6046     -23494.708    
     66000   1.1459693      326.35949      1.6593675     -23496.361    
     67000   1.1389166      318.85058      241.32626     -23550.657    
     68000   1.1394833      333.21966      1086.4302     -23436.912    
     69000   1.1457153      324.14702     -379.54273     -23447.487    
     70000   1.1388508      313.77141     -799.69928     -23512.042    
     71000   1.1452715      331.57574      210.47079     -23354.292    
     72000   1.148663       321.44751      273.26181     -23600.423    
     73000   1.1455145      315.82406      1382.1699     -23524.54     
     74000   1.138298       315.93608     -711.2221      -23506.804    
     75000   1.1357936      319.56306     -240.30081     -23541.759    
     76000   1.1317719      330.73295     -910.70187     -23456.95     
     77000   1.1297805      318.46098     -152.59965     -23496.05     
     78000   1.1275039      315.18426     -807.89382     -23465.21     
     79000   1.1387346      319.77445     -143.35114     -23523.453    
     80000   1.1433299      330.12569      651.69782     -23383.633    
     81000   1.1467285      318.99753      648.6872      -23400.119    
     82000   1.1446846      315.76725     -415.34717     -23528.776    
     83000   1.1419576      329.19999     -189.48237     -23416.536    
     84000   1.1419601      311.74088     -109.83989     -23559.909    
     85000   1.1288218      325.22574     -662.10079     -23523.22     
     86000   1.1332417      318.33694     -966.06755     -23548.438    
     87000   1.1522243      317.05735      61.477441     -23484.682    
     88000   1.1417675      322.3772       28.846201     -23513.097    
     89000   1.1433484      322.23452     -668.06255     -23487.83     
     90000   1.1465043      318.63533     -772.7851      -23571.998    
     91000   1.1404819      327.90935     -170.41063     -23420.84     
     92000   1.1196609      317.74091     -1203.0259     -23507.701    
     93000   1.128693       322.32686     -1636.9331     -23442.459    
     94000   1.1408154      315.35222     -54.982923     -23531.465    
     95000   1.1314231      321.71976      655.10693     -23420.538    
     96000   1.1394737      321.60969     -531.08454     -23518.532    
     97000   1.1388454      325.45465     -39.303175     -23463.814    
     98000   1.1331843      323.10998      681.43394     -23468.418    
     99000   1.1518396      316.95174      695.24928     -23570.778    
    100000   1.1421886      323.25525     -348.03241     -23464.163    
    101000   1.1308006      314.69709      347.91094     -23476.735    
    102000   1.126885       326.85513     -266.3016      -23425.724    
    103000   1.1283289      329.26953     -61.50044      -23502.276    
    104000   1.1531529      331.26422      1105.1484     -23470.003    
    105000   1.1446202      320.94176      575.6056      -23546.207    
    106000   1.1450646      321.55134      721.13174     -23493.684    
    107000   1.1432677      326.40014      152.73991     -23577.225    
    108000   1.1488042      318.70042      1106.6688     -23524.537    
    109000   1.15176        320.39427     -108.02927     -23611.623    
    110000   1.1317923      320.74564     -457.22325     -23389.893    
    111000   1.1327584      325.19855      58.093311     -23353.761    
    112000   1.1345934      322.31076     -130.02174     -23509.358    
    113000   1.1407434      312.97065      56.627624     -23560.53     
    114000   1.1404582      323.52971      674.24594     -23378.493    
    115000   1.1276943      325.77754     -1017.0531     -23439.271    
    116000   1.1294004      327.45482      14.83114      -23420.809    
    117000   1.1352206      317.44212     -438.84561     -23396.15     
    118000   1.1328309      309.22913     -641.86097     -23570.452    
    119000   1.1478827      312.48382      82.708069     -23566.212    
    120000   1.1441693      327.71953      362.48071     -23347.625    
    121000   1.1352365      310.75717     -3.4117605     -23619.387    
    122000   1.1358095      326.13918      23.833855     -23363.777    
    123000   1.1411075      321.90995     -486.5276      -23531.417    
    124000   1.1345363      313.25512     -23.616073     -23642.106    
    125000   1.1357252      324.88259      144.92947     -23390.83     
    126000   1.1294698      323.60425     -194.13531     -23543.475    
    127000   1.1343686      330.93927      65.596606     -23417.689    
    128000   1.1260548      321.07064      3.0671279     -23481.828    
    129000   1.1430391      319.02653      912.50163     -23484.345    
    130000   1.1284406      322.74363      626.79549     -23485.415    
    131000   1.1465166      322.66768     -258.33495     -23448.614    
    132000   1.1387808      313.69575     -285.03888     -23542.699    
    133000   1.1342759      325.68191     -315.4928      -23440.087    
    134000   1.1394156      325.80627      482.57976     -23516.528    
    135000   1.1345715      320.7796       299.14602     -23484.327    
    136000   1.1376124      324.91741     -99.562414     -23366.496    
    137000   1.1332322      319.67944      618.02643     -23582.379    
    138000   1.1361467      319.06601     -384.43214     -23481.269    
    139000   1.1418006      322.79329      146.59109     -23501.691    
    140000   1.1503512      331.49447      241.32454     -23371.569    
    141000   1.1413566      319.04893      731.40716     -23494.839    
    142000   1.1237835      328.93504     -529.62938     -23372.839    
    143000   1.1494809      325.46835      272.66439     -23509.769    
    144000   1.1310415      319.7398      -804.36294     -23478.948    
    145000   1.1271528      313.5537      -497.08829     -23579.167    
    146000   1.1353921      325.49033      36.194449     -23449.151    
    147000   1.1316491      325.58455     -450.57165     -23498.71     
    148000   1.1374131      329.20694     -387.15131     -23479.559    
    149000   1.1456511      319.8214       89.936423     -23539.437    
    150000   1.1469732      321.05386      498.69854     -23603.046    
    151000   1.1313917      327.49207     -144.15465     -23400.808    
    152000   1.1423828      320.18084     -144.9249      -23516.16     
    153000   1.1325847      325.63894     -51.824824     -23366.294    
    154000   1.1262383      312.62952      308.57497     -23467.146    
    155000   1.1349978      317.08288      389.98506     -23516.193    
    156000   1.1521189      320.09955      203.09362     -23503.319    
    157000   1.1399941      326.29239      529.95207     -23414.83     
    158000   1.1349168      314.81019     -746.43846     -23490.085    
    159000   1.1423548      312.56225     -141.20496     -23531.047    
    160000   1.1417662      322.94983      62.34343      -23480.316    
    161000   1.1392531      321.20942      83.691718     -23516.013    
    162000   1.1403389      319.91209      111.75816     -23593.366    
    163000   1.1363617      313.26805     -693.18712     -23621.754    
    164000   1.1431482      313.83775     -525.1764      -23560.451    
    165000   1.1367054      320.06263     -546.03472     -23469.668    
    166000   1.1392658      330.08931      234.10283     -23522.666    
    167000   1.1427461      324.27161     -63.38067      -23510.131    
    168000   1.1479812      327.34204      466.37968     -23370.444    
    169000   1.1407506      321.08404     -230.71488     -23504.655    
    170000   1.138839       327.09181     -904.55529     -23432.058    
    171000   1.1401049      322.93201     -858.7204      -23590.034    
    172000   1.1291244      327.65393     -940.12981     -23477.402    
    173000   1.1456934      322.78008     -132.35336     -23529.704    
    174000   1.1390498      316.02273     -180.9376      -23552.865    
    175000   1.1301889      325.04915      832.58395     -23466.564    
    176000   1.1267221      320.31222     -775.3027      -23494.977    
    177000   1.1294508      327.93082     -677.96378     -23395.238    
    178000   1.1529816      312.76324     -212.43106     -23539.178    
    179000   1.153604       326.71224     -404.61402     -23464.626    
    180000   1.1527034      314.44133      527.58603     -23544.672    
    181000   1.1336702      316.8512      -1009.65       -23535.936    
    182000   1.1438176      327.1741      -64.436048     -23522.383    
    183000   1.1293918      321.8443      -775.63132     -23424.187    
    184000   1.1303952      326.63777     -385.7577      -23396.069    
    185000   1.1402918      327.09567     -158.92204     -23400.959    
    186000   1.1312104      312.0276      -159.63796     -23533.944    
    187000   1.1386379      334.31489     -167.47856     -23323.868    
    188000   1.1442189      332.35466     -251.80302     -23431.831    
    189000   1.1321695      317.47985      253.19366     -23414.199    
    190000   1.1507415      325.5261       313.50726     -23451.707    
    191000   1.1361926      317.268        82.868458     -23507.793    
    192000   1.1369534      329.06067     -123.20537     -23340.845    
    193000   1.1527684      318.69481     -2.3485198     -23554.786    
    194000   1.1511642      322.00882     -198.64267     -23497.075    
    195000   1.1457254      317.86191      304.78402     -23506.489    
    196000   1.1391764      318.93612     -712.86448     -23516.768    
    197000   1.1443752      313.99509     -220.17375     -23482.342    
    198000   1.1361236      322.05087     -219.00163     -23382.132    
    199000   1.130939       321.59408     -1121.1518     -23489.52     
    200000   1.1310252      324.08557     -886.40231     -23429.171    
    201000   1.1381753      328.32495     -303.34744     -23459.512    
    202000   1.1438111      314.15345     -244.14591     -23555.748    
    203000   1.1386843      308.52973      222.93978     -23504.597    
    204000   1.1332701      320.24196      73.744438     -23327.44     
    205000   1.1303255      320.31231      47.330766     -23530.768    
    206000   1.146891       324.50428      161.1105      -23407.023    
    207000   1.1359611      319.70161     -575.27668     -23427.498    
    208000   1.1410812      322.18915      249.09182     -23523.735    
    209000   1.1383409      321.076        199.09765     -23521.345    
    210000   1.1348965      317.80784     -1087.8793     -23551.274    
    211000   1.1352114      323.51656     -277.60913     -23454.198    
    212000   1.1479692      321.78111     -16.734632     -23530.86     
    213000   1.1282096      315.61196     -37.683993     -23571.435    
    214000   1.1508199      323.20396     -397.36935     -23598.866    
    215000   1.1338825      314.57504     -212.96989     -23467.253    
    216000   1.1438063      316.24516     -246.12101     -23484.437    
    217000   1.1337273      323.3695      -186.62894     -23504.474    
    218000   1.1427756      319.15243     -308.4938      -23544.895    
    219000   1.140703       322.5086      -68.768738     -23501.108    
    220000   1.1232595      331.71934      138.34171     -23359.145    
    221000   1.1339539      313.49771     -384.14919     -23550.132    
    222000   1.132121       321.7681       239.76279     -23485.338    
    223000   1.1312667      322.59342     -95.40934      -23478.458    
    224000   1.1294453      322.1967       14.440572     -23449.78     
    225000   1.1327677      327.3991       247.50797     -23417.115    
    226000   1.1370559      314.60661     -798.43331     -23495.421    
    227000   1.1379445      310.36266     -383.06181     -23568.691    
    228000   1.143031       317.62353     -430.42257     -23465.028    
    229000   1.1470177      321.34265      702.76177     -23460.929    
    230000   1.1326848      317.77321      324.58862     -23567.145    
    231000   1.1361004      314.75998     -151.32454     -23525.294    
    232000   1.1322119      322.21528      248.92515     -23469.044    
    233000   1.1434422      321.6027      -333.69657     -23502.138    
    234000   1.1321453      318.87274     -312.83075     -23518.394    
    235000   1.138733       318.91391     -106.6017      -23534.043    
    236000   1.1328006      326.55488     -72.823757     -23378.391    
    237000   1.1216185      329.36641     -794.22296     -23365.168    
    238000   1.1393245      321.89291     -453.35893     -23514.526    
    239000   1.1514916      314.05714      571.97436     -23517.694    
    240000   1.1454999      314.55985      38.236931     -23579.625    
    241000   1.1329463      318.78945      93.701888     -23474.787    
    242000   1.1332274      322.66285      169.06342     -23522.181    
    243000   1.1532227      332.238        769.27363     -23397.526    
    244000   1.1488971      326.82156      567.19724     -23544.62     
    245000   1.1464335      322.47509      346.46124     -23463.877    
    246000   1.1608543      326.18195      795.28556     -23494.039    
    247000   1.1445788      316.79429     -155.04022     -23650.105    
    248000   1.1524831      328.93134     -319.27139     -23490.976    
    249000   1.1313189      325.49867     -87.518772     -23531.261    
    250000   1.1340026      327.22179     -392.30189     -23437.086    
    251000   1.1320512      335.77605      80.77528      -23379.355    
    252000   1.1353511      303.52083     -48.084143     -23597.338    
    253000   1.1338016      319.08394     -704.09156     -23480.671    
    254000   1.1332096      327.49169      369.52577     -23406.852    
    255000   1.1375951      324.66947      139.92797     -23478.516    
    256000   1.1295957      317.22081     -707.64846     -23468.542    
    257000   1.1364089      329.5227      -111.52847     -23462.384    
    258000   1.1287397      321.94203     -1307.3762     -23423.486    
    259000   1.1226248      315.77764     -1347.6904     -23469.612    
    260000   1.143964       322.35869     -672.33998     -23528.867    
    261000   1.1490404      320.38366      1256.7258     -23514.419    
    262000   1.1476768      311.44409      475.60767     -23588.363    
    263000   1.1439177      328.26106      814.70232     -23419.304    
    264000   1.1407997      324.2893       245.13623     -23520.956    
    265000   1.1399759      319.0216       1226.409      -23499.238    
    266000   1.1418559      320.23235     -256.95343     -23508        
    267000   1.1362208      320.62946     -171.89878     -23540.102    
    268000   1.1431118      319.73403     -85.633277     -23468.282    
    269000   1.1451172      317.70773      748.5369      -23512.189    
    270000   1.1463842      325.86325      534.97208     -23513.405    
    271000   1.1433478      324.12581     -314.08318     -23434.731    
    272000   1.1397118      320.57025     -307.58495     -23533.007    
    273000   1.1299459      314.7421      -653.7707      -23464.691    
    274000   1.1391164      321.63227     -563.05026     -23516.63     
    275000   1.1323698      313.88874     -984.77043     -23532.636    
    276000   1.1340744      323.17072     -849.22477     -23403.42     
    277000   1.1347444      333.23178     -473.47938     -23446.362    
    278000   1.1312869      331.22673     -370.06109     -23367.674    
    279000   1.1380442      322.79495     -651.28657     -23536.061    
    280000   1.1383465      330.94117      636.76685     -23453.745    
    281000   1.1395317      327.62324      116.18806     -23445.812    
    282000   1.1375045      324.03555      36.371216     -23490.663    
    283000   1.1422963      323.01074     -37.954429     -23501.238    
    284000   1.1303479      318.33501     -538.36716     -23554.851    
    285000   1.1332572      331.57496     -781.16427     -23473.219    
    286000   1.1311868      312.29149     -415.87124     -23571.67     
    287000   1.1367656      323.77431      147.30493     -23522.012    
    288000   1.1357605      318.64466     -520.09537     -23576.179    
    289000   1.1490198      325.93314      1121.2384     -23535.221    
    290000   1.1503289      320.77869      866.16589     -23498.158    
    291000   1.136668       323.75032     -167.30498     -23461.732    
    292000   1.1266981      320.85875     -1102.6734     -23329.92     
    293000   1.131844       319.46834      201.37698     -23453.711    
    294000   1.1450791      315.03677      352.81899     -23591.498    
    295000   1.1464104      324.97899      779.35061     -23484.865    
    296000   1.1500914      326.18735      721.03349     -23421.593    
    297000   1.1435033      317.57825     -390.55599     -23541.915    
    298000   1.1416594      312.41228     -1004.6564     -23570.084    
    299000   1.1451953      317.24542      741.04705     -23464.827    
    300000   1.1314586      314.81693     -608.94601     -23578.502    
    301000   1.1419127      320.76108      116.78856     -23486.961    
    302000   1.1358093      324.71109     -82.524012     -23444.589    
    303000   1.1320736      317.63704     -212.4081      -23439.274    
    304000   1.1403492      323.57616     -301.88519     -23429.629    
    305000   1.1316149      315.26752     -1072.4889     -23616.506    
    306000   1.1439977      320.20592      480.79348     -23548.02     
    307000   1.1425913      325.78688     -458.322       -23421.782    
    308000   1.1367633      324.19863     -448.88661     -23475.245    
    309000   1.1357712      320.60478      430.41281     -23495.351    
    310000   1.15054        327.31678      1027.7713     -23526.759    
    311000   1.1371762      317.31828      850.22607     -23539.536    
    312000   1.1413657      327.41942      470.22364     -23469.618    
    313000   1.1569384      320.26819      225.60129     -23526.641    
    314000   1.1351345      315.85281      267.84726     -23533.565    
    315000   1.1458388      318.62018      1049.0727     -23544.729    
    316000   1.1499191      316.31694      1125.0919     -23502.636    
    317000   1.1382442      322.51394     -863.95266     -23456.203    
    318000   1.1463169      316.70611      329.39018     -23587.957    
    319000   1.1487484      322.64469      478.32145     -23474.298    
    320000   1.1404944      320.29778      150.82404     -23441.46     
    321000   1.1423377      324.52988      823.76001     -23462.498    
    322000   1.1454056      314.27562     -76.954344     -23576.867    
    323000   1.134493       326.2012      -524.02303     -23468.14     
    324000   1.1427921      312.34349      475.55283     -23519.836    
    325000   1.1394917      324.26619      400.6831      -23445.176    
    326000   1.1351382      327.89026     -392.99397     -23502.663    
    327000   1.1305256      312.02388     -574.48923     -23527.307    
    328000   1.1440977      317.63881      384.34748     -23618.692    
    329000   1.1309638      317.67983     -54.495037     -23555.838    
    330000   1.1419064      324.70255     -46.246688     -23528.348    
    331000   1.1339156      314.05153     -952.35314     -23620.681    
    332000   1.1355028      327.40183     -82.432447     -23460.053    
    333000   1.1364182      323.35087     -344.14495     -23508.85     
    334000   1.1405082      317.51446      164.77899     -23605.119    
    335000   1.1305921      332.54264     -738.55708     -23419.974    
    336000   1.1374873      332.61821     -587.20776     -23358.93     
    337000   1.1478769      325.59267     -53.712153     -23418.135    
    338000   1.1392563      322.76833      181.99227     -23543.409    
    339000   1.1481596      315.16851     -299.90524     -23485.308    
    340000   1.1315549      328.79694     -791.29494     -23429.979    
    341000   1.130552       311.53451     -329.09087     -23596.441    
    342000   1.1371825      315.11357      279.13063     -23517.229    
    343000   1.1580022      307.1705       1075.6585     -23609.861    
    344000   1.1574489      318.58423      265.7828      -23572.971    
    345000   1.1502874      318.54874      786.57783     -23418.169    
    346000   1.1517779      322.31567      513.87317     -23536.32     
    347000   1.1522274      331.35582      372.66946     -23547.839    
    348000   1.1438241      323.69657      449.28106     -23419.566    
    349000   1.1479862      315.03468     -1006.7332     -23507.954    
    350000   1.1426118      320.20904      177.89043     -23384.617    
    351000   1.1369137      322.29358      87.843305     -23511.803    
    352000   1.1362285      331.33265      198.95871     -23377.151    
    353000   1.1400466      329.12163     -135.8779      -23400.113    
    354000   1.1346148      322.93576     -718.90774     -23516.805    
    355000   1.1439423      318.63038      467.83324     -23491.111    
    356000   1.1347805      330.63498     -1074.4055     -23406.662    
    357000   1.1285201      316.25784     -808.92369     -23417.422    
    358000   1.1358358      323.9589       164.40799     -23416.15     
    359000   1.1422178      321.26873      715.06801     -23477.903    
    360000   1.1410775      319.94905     -756.25773     -23474.366    
    361000   1.1381942      326.59199     -270.8274      -23441.6      
    362000   1.1449132      323.52487     -336.2915      -23538.964    
    363000   1.1435511      309.80758      393.59794     -23548.921    
    364000   1.1365842      321.44557      241.23338     -23542.395    
    365000   1.1377342      327.60503     -278.91673     -23472.383    
    366000   1.1416719      322.00891      380.44996     -23460.452    
    367000   1.1447876      321.33766     -230.55839     -23476.546    
    368000   1.1475035      314.43849      426.84465     -23566.721    
    369000   1.1461325      324.45945     -512.59118     -23500.303    
    370000   1.1445718      330.01465      873.29416     -23490.257    
    371000   1.1399333      324.64834     -46.104303     -23482.907    
    372000   1.1359692      329.01524     -425.27261     -23431.211    
    373000   1.1423058      321.47885     -6.7667322     -23511.904    
    374000   1.1481102      336.31361      715.34477     -23339.039    
    375000   1.1495863      317.14324      1578.37       -23541.709    
    376000   1.157419       312.89035      694.20985     -23603.424    
    377000   1.1429679      321.71095      162.1076      -23496.254    
    378000   1.1465683      333.1973      -434.63161     -23430.829    
    379000   1.1487966      316.79904      583.55577     -23522.21     
    380000   1.1394217      318.51893     -966.35796     -23521.521    
    381000   1.1428116      324.47084     -270.95614     -23537.57     
    382000   1.1317272      325.62035      5.4457689     -23494.526    
    383000   1.1397286      327.76417      100.70589     -23501.101    
    384000   1.1336194      314.08854     -256.81142     -23495.348    
    385000   1.1338976      315.13706     -273.42917     -23594.487    
    386000   1.1305694      318.64344     -701.3573      -23466.09     
    387000   1.1304106      321.66673      443.63922     -23424.909    
    388000   1.1456814      323.77999      29.574601     -23529.779    
    389000   1.1372647      332.69971      670.32966     -23423.135    
    390000   1.1365882      321.72455      106.78089     -23406.345    
    391000   1.1403694      337.6262      -10.294869     -23352.962    
    392000   1.1358748      325.92836     -293.23919     -23438.075    
    393000   1.120217       314.7001      -1199.7106     -23525.994    
    394000   1.1391549      317.33104     -725.7112      -23457.039    
    395000   1.1462276      313.32642      169.40415     -23549.208    
    396000   1.1475359      316.31049      564.0724      -23545.155    
    397000   1.1326382      320.38072     -683.57262     -23542.934    
    398000   1.1224124      328.05303     -99.361604     -23433.888    
    399000   1.1421406      328.10091     -12.684388     -23463.385    
    400000   1.1438167      323.25408      758.47948     -23432.881    
    401000   1.1401924      320.17429      293.37293     -23477.278    
    402000   1.1357479      326.11741     -281.01621     -23440.697    
    403000   1.1352796      325.02159      1234.8227     -23501.918    
    404000   1.1450473      313.01142      231.4018      -23490.855    
    405000   1.1441755      321.6137      -944.36248     -23598.804    
    406000   1.140831       326.50668      214.12958     -23391.473    
    407000   1.1444774      332.36368     -611.07384     -23456.084    
    408000   1.1410643      316.78625      517.32325     -23564.735    
    409000   1.1359612      325.51964     -553.87381     -23480.47     
    410000   1.1312498      316.82579     -248.95839     -23507.869    
    411000   1.1344555      313.66695     -311.87152     -23572.396    
    412000   1.1456971      323.64848      434.76427     -23510.62     
    413000   1.1432484      333.66635      262.82899     -23424.011    
    414000   1.1374196      326.28496     -413.75462     -23494.756    
    415000   1.1349108      318.59422     -400.90478     -23510.597    
    416000   1.1577064      316.42562      678.08294     -23524.668    
    417000   1.1505017      320.59746      529.34569     -23497.861    
    418000   1.1485337      324.90607     -109.2943      -23417.506    
    419000   1.1348743      318.53589      708.80608     -23483.724    
    420000   1.1198323      314.56292     -1155.198      -23362.348    
    421000   1.1426499      330.62422      616.56389     -23371.14     
    422000   1.1305986      323.67088     -801.77516     -23497.427    
    423000   1.1521509      316.97386     -241.51208     -23567.976    
    424000   1.1438815      318.04791      262.57162     -23504.064    
    425000   1.1477751      329.40636      1417.2794     -23373.89     
    426000   1.1527347      317.96754      424.46261     -23551.222    
    427000   1.1371767      321.40362     -519.91985     -23368.966    
    428000   1.1303893      323.76081     -578.01042     -23421.582    
    429000   1.1375717      326.25402      130.5464      -23433.234    
    430000   1.1428029      313.25943      398.73581     -23531.192    
    431000   1.1376972      324.76258      203.99913     -23457.864    
    432000   1.1363106      318.2057      -166.88667     -23570.949    
    433000   1.1319236      319.98435      515.62821     -23519.912    
    434000   1.1367725      327.04646      77.381385     -23438.687    
    435000   1.1311483      316.99175     -498.20607     -23587.764    
    436000   1.1493548      327.90051      603.85545     -23407.371    
    437000   1.1457692      326.24251      464.7329      -23465.596    
    438000   1.1294546      313.91157     -350.0578      -23491.224    
    439000   1.1303215      324.79198     -10.497563     -23567.957    
    440000   1.1373748      324.37405     -285.0543      -23480.593    
    441000   1.141901       312.52044      356.75223     -23606.944    
    442000   1.134361       320.90399     -631.84466     -23515.46     
    443000   1.1557194      323.88178      646.98105     -23540.205    
    444000   1.1331111      333.70535      191.82862     -23418.916    
    445000   1.1351606      317.15588     -340.53586     -23400.491    
    446000   1.1402853      313.22723      1239.4172     -23563.422    
    447000   1.1337216      320.77688     -453.84628     -23571.793    
    448000   1.1438909      321.26388     -58.865395     -23638.46     
    449000   1.1495889      325.67232      189.01145     -23403.494    
    450000   1.1432763      324.31529     -503.49258     -23537.07     
    451000   1.1420587      323.77892     -406.12565     -23464.803    
    452000   1.1468828      314.77773     -490.14496     -23588.296    
    453000   1.1344265      323.38574      278.60707     -23421.144    
    454000   1.1442756      324.55886      903.15417     -23493.56     
    455000   1.1483081      324.67777     -537.79498     -23472.503    
    456000   1.1310636      325.11677      256.49166     -23451.038    
    457000   1.1474639      316.15777      876.14502     -23452.605    
    458000   1.1330481      324.42771      331.49247     -23372.51     
    459000   1.1422614      319.0191      -734.6576      -23507.099    
    460000   1.1447467      320.63431      415.52998     -23543.264    
    461000   1.1295392      313.37837     -1033.0014     -23634.255    
    462000   1.1526784      322.69231      890.96753     -23420.937    
    463000   1.1507207      328.62051     -82.306492     -23489.299    
    464000   1.133838       323.5792      -186.73959     -23467.786    
    465000   1.1208785      325.71907     -903.64593     -23417.647    
    466000   1.1308177      316.10419     -734.87514     -23443.512    
    467000   1.1357789      316.87861     -520.42751     -23537.102    
    468000   1.1407593      324.73137     -247.6917      -23540.98     
    469000   1.1375575      314.03392     -192.69525     -23554.529    
    470000   1.1365665      326.39928     -185.65457     -23376.3      
    471000   1.1344317      318.44442      874.92743     -23439.973    
    472000   1.1520993      316.85171     -53.161071     -23561.318    
    473000   1.1473339      329.1512      -84.508084     -23409.736    
    474000   1.1380667      321.73817     -146.0031      -23428.519    
    475000   1.1449315      322.31053      212.52864     -23528.681    
    476000   1.14422        320.80838      431.21941     -23439.159    
    477000   1.1469296      318.3382       269.50356     -23484.376    
    478000   1.1380718      325.38839     -139.23676     -23537.805    
    479000   1.134651       317.83069      132.72245     -23479.907    
    480000   1.1378913      331.18896     -302.17757     -23442.779    
    481000   1.1397018      323.28925     -325.03285     -23447.47     
    482000   1.1387542      327.15488      670.73679     -23499.471    
    483000   1.1414601      318.90026     -296.81443     -23412.571    
    484000   1.143535       317.47538      463.1747      -23579.283    
    485000   1.1361691      328.09239      42.870188     -23339.153    
    486000   1.1353568      316.42644     -790.61617     -23497.732    
    487000   1.1414361      315.7089       823.31636     -23527.722    
    488000   1.1475492      323.04362      475.70919     -23556.526    
    489000   1.1369121      317.50862      193.83189     -23575.674    
    490000   1.1331815      333.49857     -50.132682     -23358.465    
    491000   1.1367544      319.76763      15.395707     -23441.955    
    492000   1.1404922      317.80997     -168.95238     -23582.872    
    493000   1.1336936      318.86817      28.83009      -23523.894    
    494000   1.1360354      314.13414     -564.7439      -23607.333    
    495000   1.1449688      320.11567      797.12782     -23551.609    
    496000   1.1325075      318.22888     -413.72061     -23537.067    
    497000   1.1398803      325.71301     -869.93985     -23467.232    
    498000   1.1386056      317.3404       378.07288     -23506.943    
    499000   1.1387829      318.55103     -306.63313     -23468.462    
    500000   1.1540478      321.28197      110.10547     -23549.823    
    501000   1.1415954      317.38843      364.30905     -23546.085    
    502000   1.1346591      325.94959      619.05339     -23418.911    
    503000   1.1502912      324.32415      318.56963     -23518.667    
    504000   1.150283       321.29795      852.29423     -23546.871    
    505000   1.1465054      320.33831      444.32414     -23460.299    
    506000   1.1326068      326.50055     -367.67783     -23493.658    
    507000   1.1355785      320.72511      187.6276      -23429.639    
    508000   1.1409641      313.59294     -31.16164      -23586.359    
    509000   1.1409917      317.20413     -854.2885      -23523.512    
    510000   1.1330561      325.90487      373.98266     -23488.825    
    511000   1.1406261      326.90553     -175.83226     -23447.945    
    512000   1.1349637      314.68744      219.66107     -23431.393    
    513000   1.1360871      332.99731      802.09796     -23364.027    
    514000   1.1526195      320.57823      847.10132     -23601.434    
    515000   1.1438569      308.43923     -775.77205     -23612.076    
    516000   1.1258585      319.19234     -153.51427     -23446.689    
    517000   1.1315551      328.0366      -314.48458     -23492.325    
    518000   1.1323925      321.26714     -587.01512     -23462.381    
    519000   1.1410577      320.86444      366.66348     -23489.417    
    520000   1.1325008      320.49539     -0.39734605    -23389.03     
    521000   1.1353481      323.02894     -544.89605     -23589.163    
    522000   1.129909       310.11061     -603.35973     -23550.762    
    523000   1.145799       319.37917      483.41068     -23553.905    
    524000   1.1339156      313.14177     -496.61956     -23627.677    
    525000   1.1411266      327.00895     -177.63834     -23398.188    
    526000   1.1411633      316.60063     -818.01933     -23500.168    
    527000   1.1298964      320.92338     -147.6147      -23452.35     
    528000   1.1462436      324.45276      1111.4733     -23460.483    
    529000   1.135451       315.87128     -287.54882     -23435.282    
    530000   1.1291311      325.22741      67.900779     -23422.403    
    531000   1.1409389      325.85944      768.28378     -23451.349    
    532000   1.1484482      321.28517     -165.03154     -23454.187    
    533000   1.1374124      317.30832      487.12912     -23489.544    
    534000   1.1406029      316.63738      345.90055     -23574.05     
    535000   1.1383963      316.15261     -1070.8511     -23560.884    
    536000   1.1414125      315.74206     -418.48351     -23477.277    
    537000   1.1476637      330.09153      958.7766      -23317.768    
    538000   1.1476565      305.4963       349.71012     -23463.846    
    539000   1.1478351      320.53265      630.0842      -23477.71     
    540000   1.1412496      316.82859     -627.67815     -23501.153    
    541000   1.1511681      317.24398      390.72329     -23527.359    
    542000   1.14713        326.38954     -69.391334     -23484.858    
    543000   1.1482186      321.32961     -32.621176     -23490.984    
    544000   1.140273       326.29042     -987.22099     -23497.105    
    545000   1.144186       323.39573      1307.2217     -23481.838    
    546000   1.141513       319.60146      60.111075     -23559.133    
    547000   1.1501222      320.13865      405.96977     -23582.089    
    548000   1.1418291      315.84564      288.80857     -23525.676    
    549000   1.1438698      315.24392     -497.20286     -23584.83     
    550000   1.135276       327.57232      428.85934     -23387.704    
    551000   1.1311959      329.51989      165.91915     -23331.737    
    552000   1.1317895      316.65103     -1371.6659     -23557.336    
    553000   1.1239911      320.49471     -935.46057     -23480.749    
    554000   1.1272006      321.377       -261.63824     -23366.625    
    555000   1.13379        312.26203      22.130092     -23511.073    
    556000   1.1375111      316.07742     -227.5761      -23554.817    
    557000   1.149058       317.05292     -549.82953     -23484.807    
    558000   1.1347918      320.95841      323.73237     -23524.649    
    559000   1.1435582      325.19475     -210.04814     -23422.755    
    560000   1.1340662      318.34945      460.8237      -23534.763    
    561000   1.1457364      318.22684     -95.89755      -23501.265    
    562000   1.1354872      326.23399     -631.5817      -23454.767    
    563000   1.1502456      328.8105       1265.1994     -23448.111    
    564000   1.1430277      310.2905      -327.51624     -23670.745    
    565000   1.1441388      314.61939      761.53152     -23644.782    
    566000   1.1410978      311.6215       42.691698     -23601.041    
    567000   1.1300817      325.77246      214.93062     -23305.74     
    568000   1.1326634      330.30556      115.31429     -23460.39     
    569000   1.1398953      319.35189      786.50437     -23486.879    
    570000   1.1415865      325.87491     -436.30273     -23392.288    
    571000   1.1446236      329.1282      -588.94078     -23436.605    
    572000   1.1385423      319.48018     -343.36016     -23545.21     
    573000   1.1400085      323.80065     -268.7797      -23528.416    
    574000   1.1587039      318.38415      864.82404     -23594.082    
    575000   1.137873       321.21704      121.24639     -23568.052    
    576000   1.1480116      324.26048      573.94236     -23376.33     
    577000   1.1415179      317.20202     -80.165753     -23422.138    
    578000   1.1273618      317.14314      280.22135     -23505.666    
    579000   1.1393399      321.35644      446.76054     -23397.262    
    580000   1.1301988      317.57428      26.774622     -23451.653    
    581000   1.1448801      316.52976     -80.541005     -23523.8      
    582000   1.1338078      317.89026      261.37481     -23399.144    
    583000   1.1406899      328.33623      68.298349     -23538.528    
    584000   1.1187554      321.32518     -1201.6799     -23460.891    
    585000   1.1334707      316.25244     -407.60574     -23509.552    
    586000   1.1328012      324.27191     -273.27648     -23526.395    
    587000   1.1320272      325.28118     -9.6364185     -23363.812    
    588000   1.1476676      322.27087      303.09934     -23468.171    
    589000   1.1459772      315.4473      -374.47314     -23519.069    
    590000   1.1364639      317.25258     -790.9061      -23510.47     
    591000   1.1435804      309.17948      199.39931     -23496.736    
    592000   1.1303533      316.24816     -420.39603     -23596.868    
    593000   1.1342084      314.06176     -291.3983      -23570.785    
    594000   1.1419741      326.33386     -219.80771     -23500.683    
    595000   1.1467077      322.57091      370.6878      -23490.875    
    596000   1.1495231      323.90672      1047.9687     -23480.401    
    597000   1.1508808      319.79858     -900.3135      -23613.895    
    598000   1.1400598      321.60542     -141.04141     -23490.556    
    599000   1.1508191      320.5721      -464.4256      -23469.364    
    600000   1.1376644      316.90096      0.19409247    -23436.088    
    601000   1.1249628      319.29261     -371.89242     -23406.348    
    602000   1.1444454      330.13309      14.657522     -23333.694    
    603000   1.1521506      325.26493      323.14607     -23521.345    
    604000   1.1423188      320.89135      1012.3803     -23456.468    
    605000   1.1331546      318.53831     -276.51005     -23525.484    
    606000   1.1425256      317.29419      1130.5532     -23476.331    
    607000   1.1540181      326.23098      78.535536     -23418.09     
    608000   1.1354608      325.76428      778.92115     -23455.239    
    609000   1.1323046      313.21436     -23.209973     -23471.368    
    610000   1.132028       324.71232      163.1507      -23398.676    
    611000   1.1336006      328.88103     -47.22656      -23377.308    
    612000   1.121666       318.06945     -622.4853      -23484.118    
    613000   1.137645       322.16967     -668.68959     -23423.013    
    614000   1.1308816      312.59447     -821.68838     -23530.982    
    615000   1.1344961      322.19         749.95782     -23460.396    
    616000   1.1419412      325.96998     -245.88741     -23490.322    
    617000   1.1416544      324.88273      166.49129     -23403.845    
    618000   1.1379471      318.03932     -718.51989     -23544.12     
    619000   1.1266871      321.09482     -427.95045     -23425.15     
    620000   1.1414767      319.29798      222.93217     -23421.523    
    621000   1.1365542      311.83897      370.34227     -23518.888    
    622000   1.1428309      320.86792     -80.656279     -23459.014    
    623000   1.1437331      319.20987     -626.69613     -23526.173    
    624000   1.1576169      316.15191      410.19218     -23492.399    
    625000   1.1385484      321.65287      411.09332     -23470.577    
    626000   1.1363593      329.31478     -204.41166     -23467.524    
    627000   1.1357133      318.99184      32.875712     -23542.58     
    628000   1.135138       311.75176     -456.04962     -23550.274    
    629000   1.1392031      317.03676     -112.09891     -23488.953    
    630000   1.1376071      331.54324     -315.89953     -23411.821    
    631000   1.1398862      314.48709      575.83568     -23526.586    
    632000   1.1453996      324.67389     -277.98216     -23428.912    
    633000   1.1333918      318.78258     -194.3292      -23532.329    
    634000   1.1380257      331.18143     -332.25598     -23440.61     
    635000   1.1463041      327.24422      310.78177     -23475.465    
    636000   1.1453994      322.69826      330.70376     -23571.868    
    637000   1.1384505      323.78953     -855.91506     -23563.784    
    638000   1.1495102      323.74454     -450.81174     -23509.503    
    639000   1.1392539      326.18405     -191.82912     -23543.475    
    640000   1.1432653      324.47715      997.68356     -23459.137    
    641000   1.1381705      321.17238     -354.57314     -23502.309    
    642000   1.1370533      323.77077     -192.02011     -23374.21     
    643000   1.1408802      333.21509      32.190673     -23463.805    
    644000   1.1351419      319.82734     -25.414949     -23483.808    
    645000   1.1322178      316.01932     -545.0411      -23402.242    
    646000   1.1485367      322.56561     -904.85025     -23409.713    
    647000   1.1513864      316.31556      207.39091     -23571.932    
    648000   1.1360089      322.95392      142.09201     -23473.742    
    649000   1.1626229      319.06818     -538.80094     -23521.809    
    650000   1.1359555      310.95729     -198.43859     -23578.164    
    651000   1.1415428      322.74624      433.84382     -23457.184    
    652000   1.1390525      311.55003      292.93845     -23512.786    
    653000   1.1458538      317.24717     -324.30484     -23532.497    
    654000   1.1212856      318.28303     -40.274846     -23373.699    
    655000   1.1243931      332.90361      921.12069     -23351.296    
    656000   1.1326972      323.35684     -412.71026     -23552.66     
    657000   1.1401187      314.24052      713.36915     -23562.672    
    658000   1.1481228      316.71093      378.36642     -23505.713    
    659000   1.1295543      318.92221     -387.78574     -23577.38     
    660000   1.1410012      317.04218      126.02666     -23435.536    
    661000   1.1427447      321.95068      187.81259     -23508.193    
    662000   1.151109       318.84196      640.68174     -23535.617    
    663000   1.1364348      311.18308     -699.4787      -23573.027    
    664000   1.1428575      327.21143      572.63983     -23492.368    
    665000   1.1407719      322.91338     -56.272587     -23449.605    
    666000   1.1422334      314.32174     -605.7669      -23546.944    
    667000   1.1357368      327.97866      540.86874     -23403.545    
    668000   1.1375878      324.29644      799.6983      -23490.161    
    669000   1.1413964      314.40949      347.73571     -23656.003    
    670000   1.1356034      311.1409      -171.54338     -23601.737    
    671000   1.1398905      318.14132     -1184.9665     -23515.602    
    672000   1.1527428      317.70886      1296.2214     -23547.691    
    673000   1.1483996      323.97246     -13.584622     -23513.803    
    674000   1.1389783      313.70821     -296.46343     -23533.322    
    675000   1.146548       314.47752      149.93903     -23492.601    
    676000   1.1402699      330.47081     -767.77828     -23441.473    
    677000   1.14257        326.09067      117.58478     -23416.648    
    678000   1.1412038      322.95975      578.50282     -23578.384    
    679000   1.1366806      318.25353      481.6428      -23493.164    
    680000   1.1299322      317.54804     -757.30251     -23532.224    
    681000   1.1325602      315.77654     -589.22905     -23517.591    
    682000   1.1537185      327.71837      34.978535     -23468.974    
    683000   1.1553303      322.20451      341.90607     -23537.909    
    684000   1.1430056      326.70682      221.44021     -23468.194    
    685000   1.130755       318.6996      -231.93983     -23472.155    
    686000   1.1316906      324.39883     -485.29196     -23431.883    
    687000   1.1429603      311.12482      833.44596     -23566.491    
    688000   1.1423322      318.59751     -1010.9259     -23516.338    
    689000   1.1450384      323.01924     -73.737102     -23478.374    
    690000   1.1471953      316.11404      16.123136     -23435.211    
    691000   1.1461568      324.04428      694.02219     -23514.061    
    692000   1.1529477      316.96342      134.73247     -23560.891    
    693000   1.143633       329.36101     -322.77779     -23585.356    
    694000   1.1360753      312.25119     -187.12134     -23528.733    
    695000   1.1347763      316.62201      20.435535     -23550.863    
    696000   1.1295669      321.26109     -281.28388     -23510.325    
    697000   1.133459       330.06004     -124.90431     -23505.508    
    698000   1.1385113      314.51334     -304.30676     -23594.37     
    699000   1.1473654      325.99598      439.20646     -23495.489    
    700000   1.1407958      322.88556     -914.85315     -23458.899    
    701000   1.1408905      318.31617      412.57356     -23541.918    
    702000   1.151626       322.9325       809.24474     -23490.961    
    703000   1.1452539      316.18016     -622.46883     -23589.34     
    704000   1.138941       313.76095     -867.4088      -23597.5      
    705000   1.1387916      318.42081     -631.02865     -23603.763    
    706000   1.1492179      325.00511      521.49006     -23400.328    
    707000   1.1466172      314.26034      1129.947      -23499.006    
    708000   1.1346366      318.70463      352.29313     -23512.694    
    709000   1.1354517      318.22134      10.959987     -23453.408    
    710000   1.1333799      309.99124     -447.798       -23525.253    
    711000   1.1227889      331.68218      275.28689     -23379.421    
    712000   1.1415335      320.54314     -327.39563     -23420.115    
    713000   1.132219       316.61286      314.23265     -23468.485    
    714000   1.1483003      321.18747     -77.149939     -23442.413    
    715000   1.1382135      312.7977       158.12591     -23551.179    
    716000   1.131363       321.47663     -480.13767     -23476.801    
    717000   1.1398102      327.49073     -468.42773     -23471.085    
    718000   1.1471876      318.41157      324.70459     -23511.544    
    719000   1.1435959      325.06754      540.5649      -23461.602    
    720000   1.143714       323.67        -279.67071     -23511.986    
    721000   1.1349134      328.7667      -329.12509     -23471.385    
    722000   1.1337731      318.62256     -496.64843     -23552.031    
    723000   1.1342336      325.99304     -360.43629     -23428.306    
    724000   1.1425163      320.1757       1043.8793     -23447.987    
    725000   1.148744       312.97805      743.73253     -23522.494    
    726000   1.1357851      329.73838     -808.02675     -23435.802    
    727000   1.1428101      321.82141     -146.81313     -23535.522    
    728000   1.1418276      311.86269     -149.48682     -23515.792    
    729000   1.1471933      323.69049      487.60573     -23452.812    
    730000   1.1438667      317.86537      725.32139     -23495.629    
    731000   1.1400089      312.44662      220.083       -23529.83     
    732000   1.1306454      322.22264      598.48229     -23524.519    
    733000   1.1404398      324.86105     -248.65676     -23378.824    
    734000   1.1340071      322.20514     -950.3357      -23449.777    
    735000   1.1454861      321.72131      590.6752      -23424.611    
    736000   1.148112       332.52036      190.49231     -23494.047    
    737000   1.1356498      319.38208     -687.0965      -23497.525    
    738000   1.1306899      314.91829      300.18766     -23482.744    
    739000   1.1501894      328.3733       759.85466     -23426.422    
    740000   1.1397526      322.4924      -487.2705      -23544.469    
    741000   1.1356634      319.66238     -578.44653     -23502.279    
    742000   1.1272079      307.85589     -312.03437     -23601.893    
    743000   1.1498019      316.75453      272.92724     -23493.293    
    744000   1.1392738      315.69966      636.1156      -23552.208    
    745000   1.1460588      322.57051      422.21526     -23564.266    
    746000   1.1455301      320.60552     -675.78502     -23520.746    
    747000   1.1394369      324.53792      287.1489      -23435.441    
    748000   1.1505211      315.87362      1262.6873     -23485.903    
    749000   1.1488033      315.82151      1235.7571     -23541.966    
    750000   1.1367237      319.36346      238.86926     -23464.208    
    751000   1.1317479      315.84581     -842.40025     -23513.678    
    752000   1.1368138      328.39064     -155.57857     -23429.899    
    753000   1.1370879      325.91662     -495.41514     -23522.454    
    754000   1.1490888      312.62877     -114.06501     -23673.886    
    755000   1.1427866      332.79237      1114.8727     -23399.315    
    756000   1.1527605      310.79938     -389.55621     -23699.008    
    757000   1.1332325      324.82488      192.31393     -23377.128    
    758000   1.1461158      325.20796      119.34263     -23480.775    
    759000   1.1369137      320.34023     -392.77624     -23555.386    
    760000   1.1358748      314.39966      430.91719     -23445.149    
    761000   1.1378604      318.84266      1060.6932     -23587.846    
    762000   1.1472411      327.86217     -517.2753      -23421.015    
    763000   1.1498815      337.00772      503.03342     -23367.108    
    764000   1.1385418      318.73694     -428.2957      -23597.652    
    765000   1.1345604      328.67167     -20.924927     -23474.026    
    766000   1.1416759      324.04663      283.79032     -23470.688    
    767000   1.1461422      318.03517      1042.2199     -23513.205    
    768000   1.1397376      322.41906     -86.752799     -23420.014    
    769000   1.1545793      320.72423      781.76369     -23520.108    
    770000   1.1490435      314.42245      486.13577     -23610.539    
    771000   1.145015       322.57907      191.57612     -23410.394    
    772000   1.1293158      326.8609      -111.84409     -23436.004    
    773000   1.1505124      332.77171      1199.8476     -23519.854    
    774000   1.1551375      323.55661      810.62837     -23574.214    
    775000   1.1508689      328.80664      1017.1729     -23472.111    
    776000   1.1393306      314.40582     -219.02889     -23462.013    
    777000   1.1436461      323.838       -164.52584     -23492.169    
    778000   1.1447305      320.37611      187.9821      -23462.348    
    779000   1.1367851      313.82758      9.7166853     -23452.362    
    780000   1.1511803      327.03395     -40.82854      -23466.601    
    781000   1.1428686      327.6771       90.674633     -23373.9      
    782000   1.142821       317.77933     -508.25217     -23498.583    
    783000   1.1445883      320.32237     -635.80235     -23516.129    
    784000   1.1316609      321.25269      26.644009     -23512.653    
    785000   1.1319161      317.17738     -956.47849     -23419.09     
    786000   1.1281078      311.08711      78.531728     -23563.509    
    787000   1.1369197      324.45599      54.260766     -23440.542    
    788000   1.1467973      318.63952      20.4304       -23464.363    
    789000   1.1455869      324.92424      533.56903     -23479.362    
    790000   1.140213       316.99727     -850.6672      -23543.56     
    791000   1.1387005      314.92093      48.174301     -23551.843    
    792000   1.13632        319.90473      5.3847882     -23477.956    
    793000   1.1386724      313.52166     -288.81952     -23542.665    
    794000   1.1415571      322.62445     -274.70308     -23534.471    
    795000   1.1479898      321.60958      1069.0918     -23474.187    
    796000   1.1380002      330.24918     -25.88304      -23537.012    
    797000   1.1493207      323.32451      1216.8945     -23535.371    
    798000   1.1289449      327.32882     -1407.8113     -23393.571    
    799000   1.1329046      318.08182     -1.5885777     -23540.792    
    800000   1.1471111      334.34624     -44.295512     -23445.685    
    801000   1.1364769      329.47181      46.120983     -23349.272    
    802000   1.1388299      320.12771      196.24343     -23468.081    
    803000   1.1452409      310.28619      246.05861     -23572.321    
    804000   1.13216        324.29093     -571.23732     -23477.897    
    805000   1.1456409      325.30119     -76.766122     -23493.971    
    806000   1.1431363      313.86396     -293.34527     -23567.864    
    807000   1.1360716      317.42573      314.70565     -23422.284    
    808000   1.1424946      324.2941      -674.18434     -23457.677    
    809000   1.1362405      326.22307      219.30694     -23437.826    
    810000   1.1392621      326.55671      156.76775     -23492.84     
    811000   1.1462088      318.36002     -282.60232     -23653.462    
    812000   1.1373235      322.62163      137.71258     -23544.782    
    813000   1.1562069      321.622        955.49105     -23593.237    
    814000   1.1209738      316.98459     -919.31466     -23409.172    
    815000   1.1361209      328.70098     -55.977608     -23422.546    
    816000   1.1242677      323.5645      -234.8944      -23396.673    
    817000   1.1356013      330.25032     -696.92536     -23385.791    
    818000   1.1409864      320.09444     -396.13963     -23511.136    
    819000   1.1501106      326.21463     -225.32331     -23461.797    
    820000   1.1523887      318.42992      226.13077     -23582.499    
    821000   1.1434542      314.01596     -377.87836     -23449.096    
    822000   1.1514953      324.53431     -327.50015     -23479.437    
    823000   1.1482026      314.05403     -707.08078     -23570.389    
    824000   1.1390209      320.56513      159.9625      -23436.765    
    825000   1.1378271      340.96126     -176.66233     -23372.833    
    826000   1.1425932      321.00992     -432.51731     -23471.708    
    827000   1.1471584      313.10974      10.628258     -23554.428    
    828000   1.1456408      327.65242     -24.496282     -23497.962    
    829000   1.1448771      330.90211      40.738077     -23439.698    
    830000   1.1431574      319.8992       1193.0046     -23425.28     
    831000   1.1452637      323.62177      1875.7425     -23504.542    
    832000   1.1367713      328.2732      -77.801622     -23416.3      
    833000   1.1511344      310.23722      416.48507     -23567.834    
    834000   1.1447927      322.41451      933.95419     -23498.19     
    835000   1.1480954      329.12143     -214.83735     -23562.226    
    836000   1.1447761      326.47503      208.23434     -23413.63     
    837000   1.1402983      329.74248     -45.945503     -23365.005    
    838000   1.1497991      322.48304      9.9465674     -23481.698    
    839000   1.1405769      317.31748     -627.32539     -23485.865    
    840000   1.1337491      321.80651      258.14621     -23431.847    
    841000   1.1394455      318.02225      604.62971     -23463.058    
    842000   1.1417638      317.38319     -25.13765      -23522.837    
    843000   1.1488946      323.71224      640.35226     -23403.22     
    844000   1.1418395      312.86699      637.70969     -23631.503    
    845000   1.1350419      332.11277      599.0638      -23367.422    
    846000   1.1487971      302.03365      952.07352     -23633.619    
    847000   1.1427779      314.39009     -521.86297     -23626.034    
    848000   1.1474733      324.03598     -0.83926018    -23479.759    
    849000   1.1525858      320.1492       631.70142     -23587.077    
    850000   1.1441088      321.00553     -628.9637      -23461.847    
    851000   1.1526148      327.94477      135.8953      -23448.487    
    852000   1.1529005      319.02844      400.90196     -23567.995    
    853000   1.1367737      313.57904     -40.676357     -23569.643    
    854000   1.138461       318.64961      496.53967     -23472.984    
    855000   1.1379691      315.62909      45.66251      -23396.011    
    856000   1.1466561      315.05435      80.992997     -23501.142    
    857000   1.1447458      325.3105      -4.2385865     -23490.333    
    858000   1.1475129      324.40412     -343.22665     -23400.438    
    859000   1.1354121      313.87097     -224.54998     -23510.86     
    860000   1.1290471      310.91438     -224.64434     -23513.453    
    861000   1.1342968      325.986       -777.83029     -23418.962    
    862000   1.1508911      323.43162      647.64368     -23437.594    
    863000   1.1352268      325.30574     -438.52244     -23406.672    
    864000   1.1351347      315.41615     -583.42229     -23395.853    
    865000   1.1433571      329.10351      700.29731     -23465.986    
    866000   1.1361436      322.53735     -634.36761     -23483.643    
    867000   1.1307311      321.25899     -64.59589      -23525.459    
    868000   1.1423762      312.20205     -414.19687     -23546.142    
    869000   1.1381309      319.08519      101.26334     -23502.834    
    870000   1.1546595      329.12517      318.25267     -23436.37     
    871000   1.1353278      320.71673     -890.6934      -23542.203    
    872000   1.1419014      309.15092     -423.76494     -23553.647    
    873000   1.1334955      310.37129     -218.18382     -23522.457    
    874000   1.1448341      324.69295      129.68994     -23430.792    
    875000   1.1431798      319.64767      377.89533     -23502.073    
    876000   1.1484921      323.73135      520.5036      -23456.25     
    877000   1.1478531      324.37722     -734.02303     -23497.831    
    878000   1.149266       326.26531      466.53153     -23446.475    
    879000   1.1334856      315.17201     -383.78916     -23580.966    
    880000   1.1366802      323.36175      346.38909     -23532.063    
    881000   1.1420171      318.4751       317.23447     -23439.843    
    882000   1.143122       320.75469      79.657191     -23523.178    
    883000   1.1506096      314.20031      61.941835     -23513.44     
    884000   1.1395234      318.08749      309.20047     -23486.497    
    885000   1.1473988      321.89415      444.16956     -23521.742    
[...]
  10291000   1.1402811      320.58644      390.12068     -23425.811    
  10292000   1.1402811      318.19248     -564.82042     -23455.252    
  10293000   1.1402811      330.35772     -640.83924     -23434.665    
  10294000   1.1402811      319.91561     -388.55789     -23499.909    
  10295000   1.1402811      325.28733     -333.02914     -23376.159    
  10296000   1.1402811      313.57685     -358.32489     -23541.61     
  10297000   1.1402811      318.59128     -86.755388     -23423.974    
  10298000   1.1402811      314.02552      65.02118      -23434.786    
  10299000   1.1402811      318.44518     -194.26807     -23426.159    
  10300000   1.1402811      320.16858      323.79072     -23439.963    
  10301000   1.1402811      324.17736      602.70996     -23413.91     
  10302000   1.1402811      315.65099      418.30513     -23465.527    
  10303000   1.1402811      323.74663      169.29014     -23465.215    
  10304000   1.1402811      319.20485      273.9408      -23511.532    
  10305000   1.1402811      315.11877      257.97773     -23482.836    
  10306000   1.1402811      323.24351     -216.36311     -23455.004    
  10307000   1.1402811      316.48453     -20.835307     -23437.674    
  10308000   1.1402811      324.31318      571.97936     -23418.432    
  10309000   1.1402811      312.6671       104.41958     -23457.039    
  10310000   1.1402811      331.87607     -724.50591     -23319.031    
  10311000   1.1402811      326.28577      374.36619     -23450.344    
  10312000   1.1402811      328.95423     -122.0654      -23402.072    
  10313000   1.1402811      326.55919     -185.45548     -23338.012    
  10314000   1.1402811      320.9669      -227.35495     -23455.717    
  10315000   1.1402811      321.72373      442.56511     -23363.878    
  10316000   1.1402811      326.65919     -621.94746     -23386.162    
  10317000   1.1402811      308.31393      85.319066     -23455.942    
  10318000   1.1402811      313.20214     -92.808473     -23528.269    
  10319000   1.1402811      317.76481      146.63189     -23363.127    
  10320000   1.1402811      313.52999     -429.64471     -23508.381    
  10321000   1.1402811      321.1931       177.20337     -23496.88     
  10322000   1.1402811      320.4653      -862.64192     -23465.337    
  10323000   1.1402811      326.87501     -245.3985      -23427.233    
  10324000   1.1402811      314.26369      761.79953     -23461.992    
  10325000   1.1402811      323.46605     -448.01039     -23404.227    
  10326000   1.1402811      323.57212     -12.497375     -23431.352    
  10327000   1.1402811      321.04688      483.80024     -23395.112    
  10328000   1.1402811      320.25803     -267.43718     -23459.204    
  10329000   1.1402811      321.9179       222.29156     -23293.924    
  10330000   1.1402811      325.27699      242.2724      -23494.086    
  10331000   1.1402811      321.05393      174.25057     -23444.211    
  10332000   1.1402811      322.86389      35.653543     -23360.262    
  10333000   1.1402811      317.58221      368.01033     -23464.525    
  10334000   1.1402811      319.97654      134.10285     -23458.856    
  10335000   1.1402811      331.56471      207.57469     -23335.098    
  10336000   1.1402811      325.70372     -237.9185      -23349.37     
  10337000   1.1402811      315.70438      724.61478     -23475.261    
  10338000   1.1402811      317.09465     -202.73266     -23589.207    
  10339000   1.1402811      314.27182     -53.454517     -23515.254    
  10340000   1.1402811      325.18274     -182.9083      -23447.141    
  10341000   1.1402811      331.23811      841.08569     -23321.216    
  10342000   1.1402811      316.44458     -314.18283     -23443.224    
  10343000   1.1402811      316.56828     -631.90606     -23476.398    
  10344000   1.1402811      320.99989     -40.657275     -23465.669    
  10345000   1.1402811      311.1326       648.09808     -23463.97     
  10346000   1.1402811      320.67035      824.20278     -23512.303    
  10347000   1.1402811      324.23265      434.28531     -23386.229    
  10348000   1.1402811      328.2924      -259.07447     -23419.671    
  10349000   1.1402811      324.4724      -262.18316     -23355.207    
  10350000   1.1402811      327.16658      291.11205     -23358.404    
  10351000   1.1402811      313.68343     -133.92533     -23494.023    
  10352000   1.1402811      324.06262     -263.82409     -23471.382    
  10353000   1.1402811      332.35447     -1.3621919     -23363.053    
  10354000   1.1402811      323.90596      167.46225     -23419.533    
  10355000   1.1402811      325.76457     -1013.627      -23367.085    
  10356000   1.1402811      326.81893     -586.10155     -23395.35     
  10357000   1.1402811      323.3088       266.65631     -23531.189    
  10358000   1.1402811      315.85426      90.160922     -23471.036    
  10359000   1.1402811      312.43799     -190.15224     -23488.131    
  10360000   1.1402811      329.27753      438.23776     -23412.901    
  10361000   1.1402811      315.79355      370.43069     -23473.871    
  10362000   1.1402811      314.67523     -921.46288     -23473.811    
  10363000   1.1402811      317.51422      102.86403     -23462.228    
  10364000   1.1402811      329.24977      2.7872335     -23411.732    
  10365000   1.1402811      320.56071      1192.1205     -23478.361    
  10366000   1.1402811      324.70617     -96.270406     -23458.099    
  10367000   1.1402811      324.65351      670.18059     -23403.679    
  10368000   1.1402811      319.25327      170.06632     -23345.851    
  10369000   1.1402811      325.40608      185.55731     -23459.575    
  10370000   1.1402811      325.24013     -822.44389     -23461.557    
  10371000   1.1402811      330.38519     -151.86783     -23390.986    
  10372000   1.1402811      320.93085     -245.738       -23476.873    
  10373000   1.1402811      331.90933     -764.79409     -23484.759    
  10374000   1.1402811      314.60825      325.5275      -23403.917    
  10375000   1.1402811      315.47366      203.09029     -23484.033    
  10376000   1.1402811      325.31972     -228.06256     -23380.198    
  10377000   1.1402811      321.02221     -152.95482     -23385.009    
  10378000   1.1402811      315.06663     -516.93192     -23531.404    
  10379000   1.1402811      314.90825      334.86337     -23516.569    
  10380000   1.1402811      317.57262     -170.56446     -23517.603    
  10381000   1.1402811      325.18649     -49.199751     -23436.838    
  10382000   1.1402811      325.60066      730.00803     -23410.193    
  10383000   1.1402811      312.37786      24.587212     -23506.971    
  10384000   1.1402811      314.70976     -902.29359     -23549.93     
  10385000   1.1402811      316.15983      563.96911     -23514.673    
  10386000   1.1402811      312.82794      230.88179     -23483.121    
  10387000   1.1402811      320.07166      48.830752     -23524.101    
  10388000   1.1402811      320.64395     -698.46703     -23504.761    
  10389000   1.1402811      326.25236      119.34969     -23394.357    
  10390000   1.1402811      315.11549      9.6237084     -23477.25     
  10391000   1.1402811      324.56682     -26.827839     -23486.983    
  10392000   1.1402811      322.76267      213.55654     -23333.871    
  10393000   1.1402811      326.82245     -413.51953     -23446.21     
  10394000   1.1402811      327.14259     -332.65387     -23423.322    
  10395000   1.1402811      317.74502     -166.59538     -23599.274    
  10396000   1.1402811      315.39132      451.9652      -23520.447    
  10397000   1.1402811      323.10991     -155.23932     -23409.759    
  10398000   1.1402811      321.78546     -48.309443     -23389.019    
  10399000   1.1402811      318.22812      248.41196     -23485.144    
  10400000   1.1402811      307.87374     -475.55135     -23495.648    
  10401000   1.1402811      314.30241     -455.93567     -23405.799    
  10402000   1.1402811      332.37085      688.85332     -23379.723    
  10403000   1.1402811      323.35355      376.03512     -23457.439    
  10404000   1.1402811      322.30795     -977.43332     -23428.507    
  10405000   1.1402811      325.41897     -848.11586     -23473.906    
  10406000   1.1402811      318.42624      83.552362     -23405.248    
  10407000   1.1402811      323.51939     -685.49426     -23447.647    
  10408000   1.1402811      326.92264      317.41155     -23387.327    
  10409000   1.1402811      317.87664     -136.42368     -23517.254    
  10410000   1.1402811      324.25478      79.463711     -23492.708    
  10411000   1.1402811      320.41982      450.99355     -23430.486    
  10412000   1.1402811      321.24401     -477.10924     -23492.57     
  10413000   1.1402811      322.50436      723.17096     -23421.69     
  10414000   1.1402811      315.7573       8.4687338     -23539.892    
  10415000   1.1402811      322.69345     -1208.4196     -23474.653    
  10416000   1.1402811      319.13411     -258.10215     -23444.433    
  10417000   1.1402811      324.99853     -118.6882      -23440.08     
  10418000   1.1402811      310.47385      486.27208     -23534.966    
  10419000   1.1402811      317.28583      333.85739     -23463.044    
  10420000   1.1402811      328.56006      1140.253      -23410.243    
  10421000   1.1402811      322.65919      137.83096     -23500.35     
  10422000   1.1402811      321.74007     -460.12571     -23486.94     
  10423000   1.1402811      321.39542     -933.42631     -23520.356    
  10424000   1.1402811      321.62281      610.55352     -23517.854    
  10425000   1.1402811      320.39191      434.58599     -23475.808    
  10426000   1.1402811      326.01311     -405.35783     -23594.228    
  10427000   1.1402811      320.1592       128.6896      -23471.159    
  10428000   1.1402811      322.51938      638.64352     -23362.081    
  10429000   1.1402811      312.56396      515.28883     -23464.85     
  10430000   1.1402811      316.09935      802.6698      -23481.639    
  10431000   1.1402811      320.87388      339.74385     -23410.404    
  10432000   1.1402811      323.52462      248.03689     -23412.654    
  10433000   1.1402811      326.9237      -471.94697     -23293.002    
  10434000   1.1402811      322.65906      595.18944     -23379.482    
  10435000   1.1402811      318.61946      897.53696     -23441.26     
  10436000   1.1402811      324.1021       499.85675     -23327.425    
  10437000   1.1402811      311.82718     -626.40084     -23497.453    
  10438000   1.1402811      317.5795       316.13299     -23422.742    
  10439000   1.1402811      324.95944      78.542293     -23477.75     
  10440000   1.1402811      337.0863       223.09027     -23293.38     
  10441000   1.1402811      321.73039     -309.84904     -23392.041    
  10442000   1.1402811      324.67886      694.58317     -23461.473    
  10443000   1.1402811      320.2698       396.75929     -23388.839    
  10444000   1.1402811      318.68526      10.121365     -23528.588    
  10445000   1.1402811      324.69826      242.79122     -23353.414    
  10446000   1.1402811      327.71095      487.12093     -23412.002    
  10447000   1.1402811      315.50964     -1101.2372     -23432.793    
  10448000   1.1402811      319.0393       289.22681     -23412.577    
  10449000   1.1402811      323.51476     -360.26578     -23423.235    
  10450000   1.1402811      323.3194      -147.42118     -23493.68     
  10451000   1.1402811      323.19653     -413.58944     -23440.041    
  10452000   1.1402811      318.15986      425.98595     -23463.973    
  10453000   1.1402811      318.18604     -290.9386      -23453.145    
  10454000   1.1402811      323.09516     -166.74947     -23372.635    
  10455000   1.1402811      322.04014      272.96259     -23447.927    
  10456000   1.1402811      314.38368     -658.73127     -23532.708    
  10457000   1.1402811      324.28058      238.88651     -23462.798    
  10458000   1.1402811      314.91718     -510.47402     -23542.271    
  10459000   1.1402811      323.93417     -161.92091     -23442.142    
  10460000   1.1402811      314.96199      501.23794     -23402.337    
  10461000   1.1402811      320.21753      909.26241     -23478.284    
  10462000   1.1402811      333.65065      135.53297     -23447.93     
  10463000   1.1402811      331.97357      77.995338     -23404.196    
  10464000   1.1402811      313.33836     -129.23823     -23575.385    
  10465000   1.1402811      324.3796      -243.15564     -23457.696    
  10466000   1.1402811      331.70345      511.77554     -23319.595    
  10467000   1.1402811      316.9474       29.531022     -23423.168    
  10468000   1.1402811      312.95224     -884.37524     -23575.734    
  10469000   1.1402811      318.5281      -686.2078      -23404.702    
  10470000   1.1402811      322.1829      -101.22823     -23338.406    
  10471000   1.1402811      317.16921     -525.3214      -23515.503    
  10472000   1.1402811      319.03676     -142.45448     -23443.088    
  10473000   1.1402811      324.91158      601.93982     -23430.711    
  10474000   1.1402811      322.0505      -171.94552     -23484.212    
  10475000   1.1402811      315.40935     -86.23208      -23488.569    
  10476000   1.1402811      321.37907     -35.218731     -23503.773    
  10477000   1.1402811      316.51826      75.368648     -23416.577    
  10478000   1.1402811      325.43215      340.91982     -23440.604    
  10479000   1.1402811      323.04121     -278.08034     -23457.995    
  10480000   1.1402811      322.04829     -222.95513     -23330.473    
  10481000   1.1402811      322.09311     -196.47878     -23385.264    
  10482000   1.1402811      326.57996     -283.32174     -23388.522    
  10483000   1.1402811      317.92792     -388.21552     -23507.572    
  10484000   1.1402811      319.52618      387.79188     -23484.268    
  10485000   1.1402811      318.11082     -373.2905      -23435.917    
  10486000   1.1402811      315.88743     -1297.3964     -23475.445    
  10487000   1.1402811      327.91251      581.89349     -23358.716    
  10488000   1.1402811      324.58734      138.30749     -23471.894    
  10489000   1.1402811      315.84349      168.04281     -23536.947    
  10490000   1.1402811      319.27031     -524.7395      -23506.436    
  10491000   1.1402811      326.60012     -147.76603     -23447.602    
  10492000   1.1402811      316.69075     -754.44009     -23388.274    
  10493000   1.1402811      317.64481     -433.99447     -23425.496    
  10494000   1.1402811      329.35627      947.66291     -23312.002    
  10495000   1.1402811      323.73536      133.37569     -23430.404    
  10496000   1.1402811      317.83604     -77.875189     -23333.964    
  10497000   1.1402811      325.08562     -208.89677     -23393.149    
  10498000   1.1402811      327.11368     -514.97922     -23433.6      
  10499000   1.1402811      317.66063      180.26284     -23469.073    
  10500000   1.1402811      326.69995      518.16507     -23429.613    
  10501000   1.1402811      324.48187      379.08972     -23335.6      
  10502000   1.1402811      318.36152     -528.23316     -23439.274    
  10503000   1.1402811      315.05967      681.34956     -23357.899    
  10504000   1.1402811      323.96101     -484.26033     -23445.866    
  10505000   1.1402811      318.95467      640.17624     -23480.275    
  10506000   1.1402811      323.34697      601.1206      -23437.198    
  10507000   1.1402811      315.10688      348.55139     -23375.412    
  10508000   1.1402811      306.23244      255.4861      -23572.732    
  10509000   1.1402811      315.94675      37.689681     -23498.757    
  10510000   1.1402811      324.51034     -325.55337     -23444.281    
  10511000   1.1402811      325.29626     -107.57424     -23391.305    
  10512000   1.1402811      320.38176     -834.9741      -23497.157    
  10513000   1.1402811      317.56053      607.81929     -23403.36     
  10514000   1.1402811      323.08793      470.68057     -23309.591    
  10515000   1.1402811      323.58259      175.30272     -23378.811    
  10516000   1.1402811      313.45362      312.63606     -23558.49     
  10517000   1.1402811      329.1615      -184.24357     -23446.452    
  10518000   1.1402811      320.67538     -167.41899     -23405.788    
  10519000   1.1402811      316.77716     -248.11302     -23506.231    
  10520000   1.1402811      319.04474      102.27866     -23425.785    
  10521000   1.1402811      325.22183     -199.20722     -23434.286    
  10522000   1.1402811      324.45044      845.84088     -23407.914    
  10523000   1.1402811      333.39183      329.2645      -23344.751    
  10524000   1.1402811      325.29802     -575.53364     -23390.913    
  10525000   1.1402811      317.22681     -239.00007     -23453.898    
  10526000   1.1402811      323.92558     -564.63289     -23417.11     
  10527000   1.1402811      314.6098       985.45816     -23542.699    
  10528000   1.1402811      319.74177      522.83995     -23444.833    
  10529000   1.1402811      322.96139      13.317056     -23452.374    
  10530000   1.1402811      324.01872     -385.84902     -23423.327    
  10531000   1.1402811      326.91876      15.63229      -23402.67     
  10532000   1.1402811      321.87838      88.194387     -23428.067    
  10533000   1.1402811      328.95036     -305.0486      -23362.281    
  10534000   1.1402811      327.63587      703.19521     -23343.395    
  10535000   1.1402811      321.60804     -1190.2095     -23513.94     
  10536000   1.1402811      327.75633     -6.6564756     -23478.225    
  10537000   1.1402811      326.15601     -647.86266     -23380.778    
  10538000   1.1402811      321.80108      932.18523     -23361.686    
  10539000   1.1402811      325.1412      -220.77935     -23342.079    
  10540000   1.1402811      315.70315     -414.52903     -23428.069    
  10541000   1.1402811      322.04801     -125.00265     -23330.133    
  10542000   1.1402811      320.05628      422.63746     -23406.342    
  10543000   1.1402811      323.0215      -109.7694      -23371.509    
  10544000   1.1402811      327.26409     -131.4559      -23341.063    
  10545000   1.1402811      325.63355     -470.72203     -23423.37     
  10546000   1.1402811      316.3204      -10.175241     -23430.761    
  10547000   1.1402811      320.90207      605.78639     -23465.943    
  10548000   1.1402811      322.43112     -170.19476     -23436.735    
  10549000   1.1402811      316.55483     -529.17187     -23523.992    
  10550000   1.1402811      327.13317     -849.11868     -23464.783    
Loop time of 1386.18 on 32 procs for 500000 steps with 3324 atoms

Performance: 62.330 ns/day, 0.385 hours/ns, 360.705 timesteps/s
99.6% CPU use with 32 MPI tasks x no OpenMP threads

MPI task timing breakdown:
Section |  min time  |  avg time  |  max time  |%varavg| %total
---------------------------------------------------------------
Pair    | 402.02     | 449.22     | 491.39     | 103.8 | 32.41
Bond    | 1.6824     | 1.8336     | 1.9279     |   4.6 |  0.13
Kspace  | 273.9      | 313.1      | 356.79     | 122.4 | 22.59
Neigh   | 152.54     | 159.39     | 167.19     |  32.7 | 11.50
Comm    | 106.97     | 110.4      | 115.9      |  19.1 |  7.96
Output  | 17.456     | 17.488     | 18.292     |   3.5 |  1.26
Modify  | 318        | 328.11     | 332.7      |  19.8 | 23.67
Other   |            | 6.633      |            |       |  0.48

Nlocal:        103.875 ave         118 max          94 min
Histogram: 3 3 6 5 2 6 2 3 1 1
Nghost:        4359.28 ave        4403 max        4309 min
Histogram: 2 1 4 7 3 2 1 3 5 4
Neighs:        42104.7 ave       48190 max       37729 min
Histogram: 4 4 3 4 6 3 3 2 1 2

Total # of neighbors = 1347349
Ave neighs/atom = 405.33965
Ave special neighs/atom = 2.0649819
Neighbor list builds = 129352
Dangerous builds = 0
