LAMMPS (23 Jun 2022 - Update 2)
WARNING: Using I/O redirection is unreliable with parallel runs. Better use -in switch to read input file. (../lammps.cpp:530)
Reading restart file ...
  restart file = 23 Jun 2022, LAMMPS = 23 Jun 2022
WARNING: Restart file used different # of processors: 32 vs. 28 (../read_restart.cpp:658)
  restoring atom style full from restart
  orthogonal box = (0.35556672 0.35556672 0.35556672) to (32.370449 32.370449 32.370449)
  2 by 2 by 7 MPI processor grid
  restoring pair style lj/cut/tip4p/long from restart
  restoring bond style harmonic from restart
  restoring angle style harmonic from restart
  3486 atoms
  2324 bonds
  1324 angles
Finding 1-2 1-3 1-4 neighbors ...
  special bond factors lj:    0        0        0       
  special bond factors coul:  0        0        0       
     4 = max # of 1-2 neighbors
     3 = max # of 1-3 neighbors
     3 = max # of 1-4 neighbors
     4 = max # of special neighbors
  special bonds CPU = 0.004 seconds
  read_restart CPU = 0.096 seconds
  create bodies CPU = 0.001 seconds
  1162 rigid bodies with 3486 atoms
  1.4902253 = max distance from body owner to body atom
Resetting global fix info from restart file:
  fix style: rigid/nvt/small, fix ID: integrate
PPPM initialization ...
  extracting TIP4P info from pair style
  using 12-bit tables for long-range coulomb (../kspace.cpp:342)
  G vector (1/distance) = 0.31046087
  grid = 30 30 30
  stencil order = 5
  estimated absolute RMS force accuracy = 0.0037467932
  estimated relative force accuracy = 1.1283357e-05
  using double precision KISS FFT
  3d grid and FFT values/proc = 5808 1800
Generated 0 of 15 mixed pair_coeff terms from arithmetic mixing rule
All restart file global fix info was re-assigned
Neighbor list info ...
  update every 1 steps, delay 0 steps, check yes
  max neighbors/atom: 2000, page size: 100000
  master list distance cutoff = 12.3092
  ghost atom cutoff = 12.3092
  binsize = 6.1546, bins = 6 6 6
  1 neighbor lists, perpetual/occasional/extra = 1 0 0
  (1) pair lj/cut/tip4p/long, perpetual
      attributes: half, newton on
      pair build: half/bin/newton
      stencil: half/bin/3d
      bin: standard
Setting up Verlet run ...
  Unit style    : real
  Current step  : 0
  Time step     : 0.001
Per MPI rank memory allocation (min/avg/max) = 15.21 | 15.23 | 15.3 Mbytes
   Step        Density          Temp          Press          TotEng    
         0   1.2121114      292.40169     -2010432.2     -31245.128    
      1000   1.2121114      292.01551     -464.66428     -31245.242    
Loop time of 2.85326 on 28 procs for 1000 steps with 3486 atoms

Performance: 0.030 ns/day, 792.571 hours/ns, 350.477 timesteps/s
96.4% CPU use with 28 MPI tasks x no OpenMP threads

MPI task timing breakdown:
Section |  min time  |  avg time  |  max time  |%varavg| %total
---------------------------------------------------------------
Pair    | 1.1359     | 1.3576     | 1.6356     |  11.0 | 47.58
Bond    | 0.0046207  | 0.0056301  | 0.0065188  |   0.7 |  0.20
Kspace  | 0.62236    | 0.89344    | 1.1125     |  13.3 | 31.31
Neigh   | 0          | 0          | 0          |   0.0 |  0.00
Comm    | 0.11176    | 0.11863    | 0.12849    |   1.3 |  4.16
Output  | 2.7036e-05 | 3.8192e-05 | 0.00024121 |   0.0 |  0.00
Modify  | 0.46645    | 0.46725    | 0.46864    |   0.1 | 16.38
Other   |            | 0.01065    |            |       |  0.37

Nlocal:          124.5 ave         137 max         113 min
Histogram: 4 1 3 6 1 1 3 5 3 1
Nghost:        5018.89 ave        5090 max        4959 min
Histogram: 3 4 1 3 5 1 7 1 1 2
Neighs:        51585.9 ave       63076 max       43946 min
Histogram: 2 5 6 2 3 4 4 0 1 1

Total # of neighbors = 1444406
Ave neighs/atom = 414.34481
Ave special neighs/atom = 2.0929432
Neighbor list builds = 0
Dangerous builds = 0
PPPM initialization ...
  extracting TIP4P info from pair style
  using 12-bit tables for long-range coulomb (../kspace.cpp:342)
  G vector (1/distance) = 0.31046087
  grid = 30 30 30
  stencil order = 5
  estimated absolute RMS force accuracy = 0.0037467932
  estimated relative force accuracy = 1.1283357e-05
  using double precision KISS FFT
  3d grid and FFT values/proc = 5808 1800
Generated 0 of 15 mixed pair_coeff terms from arithmetic mixing rule
Setting up Verlet run ...
  Unit style    : real
  Current step  : 1000
  Time step     : 0.01
Per MPI rank memory allocation (min/avg/max) = 15.21 | 15.23 | 15.3 Mbytes
   Step        Density          Temp          Press          TotEng    
      1000   1.2121114      292.01551      421.02788     -31245.242    
      2000   1.2121114      293.39699     -119.35772     -31188.284    
Loop time of 2.82583 on 28 procs for 1000 steps with 3486 atoms

Performance: 0.306 ns/day, 78.495 hours/ns, 353.878 timesteps/s
96.6% CPU use with 28 MPI tasks x no OpenMP threads

MPI task timing breakdown:
Section |  min time  |  avg time  |  max time  |%varavg| %total
---------------------------------------------------------------
Pair    | 1.1298     | 1.354      | 1.6111     |  10.6 | 47.92
Bond    | 0.0046274  | 0.0055956  | 0.0065554  |   0.7 |  0.20
Kspace  | 0.61935    | 0.86923    | 1.0962     |  12.9 | 30.76
Neigh   | 0.0014253  | 0.0014583  | 0.0014773  |   0.0 |  0.05
Comm    | 0.10941    | 0.11947    | 0.12998    |   1.4 |  4.23
Output  | 2.7915e-05 | 3.7991e-05 | 0.00022499 |   0.0 |  0.00
Modify  | 0.46395    | 0.46529    | 0.46738    |   0.1 | 16.47
Other   |            | 0.01072    |            |       |  0.38

Nlocal:          124.5 ave         137 max         113 min
Histogram: 3 2 8 0 1 2 3 5 3 1
Nghost:        5020.04 ave        5092 max        4967 min
Histogram: 6 1 4 2 1 7 4 0 2 1
Neighs:        51591.1 ave       61235 max       42510 min
Histogram: 2 0 5 5 4 2 4 3 0 3

Total # of neighbors = 1444550
Ave neighs/atom = 414.38612
Ave special neighs/atom = 2.0929432
Neighbor list builds = 1
Dangerous builds = 0
PPPM initialization ...
  extracting TIP4P info from pair style
  using 12-bit tables for long-range coulomb (../kspace.cpp:342)
  G vector (1/distance) = 0.31046087
  grid = 30 30 30
  stencil order = 5
  estimated absolute RMS force accuracy = 0.0037467932
  estimated relative force accuracy = 1.1283357e-05
  using double precision KISS FFT
  3d grid and FFT values/proc = 5808 1800
Generated 0 of 15 mixed pair_coeff terms from arithmetic mixing rule
Setting up Verlet run ...
  Unit style    : real
  Current step  : 2000
  Time step     : 0.1
Per MPI rank memory allocation (min/avg/max) = 15.21 | 15.23 | 15.3 Mbytes
   Step        Density          Temp          Press          TotEng    
      2000   1.2121114      293.39699      1429.5604     -31188.284    
      3000   1.2121114      295.07132     -271.56312     -31225.91     
Loop time of 2.85996 on 28 procs for 1000 steps with 3486 atoms

Performance: 3.021 ns/day, 7.944 hours/ns, 349.655 timesteps/s
96.5% CPU use with 28 MPI tasks x no OpenMP threads

MPI task timing breakdown:
Section |  min time  |  avg time  |  max time  |%varavg| %total
---------------------------------------------------------------
Pair    | 1.1245     | 1.3742     | 1.6065     |  10.4 | 48.05
Bond    | 0.004712   | 0.005573   | 0.0063852  |   0.6 |  0.19
Kspace  | 0.62857    | 0.85267    | 1.1055     |  13.0 | 29.81
Neigh   | 0.016964   | 0.017262   | 0.017423   |   0.1 |  0.60
Comm    | 0.11269    | 0.12072    | 0.12879    |   1.2 |  4.22
Output  | 2.727e-05  | 3.6854e-05 | 0.00021964 |   0.0 |  0.00
Modify  | 0.47638    | 0.47811    | 0.48       |   0.1 | 16.72
Other   |            | 0.01144    |            |       |  0.40

Nlocal:          124.5 ave         134 max         114 min
Histogram: 3 0 3 3 2 6 2 2 3 4
Nghost:        5014.86 ave        5078 max        4948 min
Histogram: 1 3 4 3 3 0 6 4 2 2
Neighs:        51597.8 ave       60231 max       44505 min
Histogram: 2 3 6 2 2 5 2 3 2 1

Total # of neighbors = 1444737
Ave neighs/atom = 414.43976
Ave special neighs/atom = 2.0929432
Neighbor list builds = 12
Dangerous builds = 0
PPPM initialization ...
  extracting TIP4P info from pair style
  using 12-bit tables for long-range coulomb (../kspace.cpp:342)
  G vector (1/distance) = 0.31046087
  grid = 30 30 30
  stencil order = 5
  estimated absolute RMS force accuracy = 0.0037467932
  estimated relative force accuracy = 1.1283357e-05
  using double precision KISS FFT
  3d grid and FFT values/proc = 5808 1800
Generated 0 of 15 mixed pair_coeff terms from arithmetic mixing rule
Setting up Verlet run ...
  Unit style    : real
  Current step  : 3000
  Time step     : 0.2
Per MPI rank memory allocation (min/avg/max) = 15.21 | 15.23 | 15.3 Mbytes
   Step        Density          Temp          Press          TotEng    
      3000   1.2121114      295.07132      3754.2003     -31225.91     
      4000   1.2121114      290.6882       849.68497     -31251.035    
Loop time of 2.87792 on 28 procs for 1000 steps with 3486 atoms

Performance: 6.004 ns/day, 3.997 hours/ns, 347.474 timesteps/s
96.9% CPU use with 28 MPI tasks x no OpenMP threads

MPI task timing breakdown:
Section |  min time  |  avg time  |  max time  |%varavg| %total
---------------------------------------------------------------
Pair    | 1.1689     | 1.3843     | 1.593      |   9.1 | 48.10
Bond    | 0.0046682  | 0.0055888  | 0.0064347  |   0.7 |  0.19
Kspace  | 0.62948    | 0.83071    | 1.0492     |  11.6 | 28.86
Neigh   | 0.034583   | 0.035123   | 0.035455   |   0.1 |  1.22
Comm    | 0.11595    | 0.12223    | 0.13037    |   1.1 |  4.25
Output  | 2.6538e-05 | 3.9038e-05 | 0.00023981 |   0.0 |  0.00
Modify  | 0.4862     | 0.48822    | 0.49079    |   0.2 | 16.96
Other   |            | 0.01169    |            |       |  0.41

Nlocal:          124.5 ave         138 max         114 min
Histogram: 2 3 5 2 5 4 2 3 1 1
Nghost:        5005.46 ave        5058 max        4962 min
Histogram: 4 3 0 5 5 3 2 3 1 2
Neighs:        51613.4 ave       58530 max       43707 min
Histogram: 1 1 1 7 5 3 2 3 2 3

Total # of neighbors = 1445176
Ave neighs/atom = 414.56569
Ave special neighs/atom = 2.0929432
Neighbor list builds = 25
Dangerous builds = 0
PPPM initialization ...
  extracting TIP4P info from pair style
  using 12-bit tables for long-range coulomb (../kspace.cpp:342)
  G vector (1/distance) = 0.31046087
  grid = 30 30 30
  stencil order = 5
  estimated absolute RMS force accuracy = 0.0037467932
  estimated relative force accuracy = 1.1283357e-05
  using double precision KISS FFT
  3d grid and FFT values/proc = 5808 1800
Generated 0 of 15 mixed pair_coeff terms from arithmetic mixing rule
Setting up Verlet run ...
  Unit style    : real
  Current step  : 4000
  Time step     : 0.5
Per MPI rank memory allocation (min/avg/max) = 15.21 | 15.23 | 15.3 Mbytes
   Step        Density          Temp          Press          TotEng    
      4000   1.2121114      290.6882       2826.5916     -31251.035    
      5000   1.2121114      294.66622     -69.158404     -31238.316    
Loop time of 3.01298 on 28 procs for 1000 steps with 3486 atoms

Performance: 14.338 ns/day, 1.674 hours/ns, 331.897 timesteps/s
97.0% CPU use with 28 MPI tasks x no OpenMP threads

MPI task timing breakdown:
Section |  min time  |  avg time  |  max time  |%varavg| %total
---------------------------------------------------------------
Pair    | 1.1705     | 1.3987     | 1.6351     |   9.2 | 46.42
Bond    | 0.0046804  | 0.0055732  | 0.0064774  |   0.6 |  0.18
Kspace  | 0.63848    | 0.86992    | 1.0999     |  11.6 | 28.87
Neigh   | 0.091733   | 0.093046   | 0.093823   |   0.2 |  3.09
Comm    | 0.12435    | 0.13035    | 0.13848    |   1.0 |  4.33
Output  | 2.7555e-05 | 3.7667e-05 | 0.00022161 |   0.0 |  0.00
Modify  | 0.50059    | 0.50333    | 0.50616    |   0.2 | 16.71
Other   |            | 0.01207    |            |       |  0.40

Nlocal:          124.5 ave         134 max         109 min
Histogram: 2 2 1 1 0 3 4 7 6 2
Nghost:        5003.61 ave        5071 max        4937 min
Histogram: 1 4 2 2 7 3 2 2 4 1
Neighs:        51601.3 ave       60416 max       43856 min
Histogram: 2 2 3 5 4 4 4 0 3 1

Total # of neighbors = 1444836
Ave neighs/atom = 414.46816
Ave special neighs/atom = 2.0929432
Neighbor list builds = 65
Dangerous builds = 0
  create bodies CPU = 0.000 seconds
  1162 rigid bodies with 3486 atoms
  1.4902253 = max distance from body owner to body atom
PPPM initialization ...
  extracting TIP4P info from pair style
  using 12-bit tables for long-range coulomb (../kspace.cpp:342)
  G vector (1/distance) = 0.31046087
  grid = 30 30 30
  stencil order = 5
  estimated absolute RMS force accuracy = 0.0037467932
  estimated relative force accuracy = 1.1283357e-05
  using double precision KISS FFT
  3d grid and FFT values/proc = 5808 1800
Generated 0 of 15 mixed pair_coeff terms from arithmetic mixing rule
Setting up Verlet run ...
  Unit style    : real
  Current step  : 0
  Time step     : 2
Per MPI rank memory allocation (min/avg/max) = 15.21 | 15.23 | 15.3 Mbytes
   Step        Density          Temp          Press          TotEng    
         0   1.2121114      294.66622      1576.2893     -31238.316    
    100000   1.2121114      297.19119     -484.27598     -31154.127    
Loop time of 347.069 on 28 procs for 100000 steps with 3486 atoms

Performance: 49.788 ns/day, 0.482 hours/ns, 288.127 timesteps/s
97.1% CPU use with 28 MPI tasks x no OpenMP threads

MPI task timing breakdown:
Section |  min time  |  avg time  |  max time  |%varavg| %total
---------------------------------------------------------------
Pair    | 127.1      | 146.23     | 164.98     |  78.4 | 42.13
Bond    | 0.5279     | 0.56979    | 0.60367    |   2.2 |  0.16
Kspace  | 69.565     | 87.967     | 107.36     | 101.3 | 25.35
Neigh   | 34.479     | 34.947     | 35.211     |   3.9 | 10.07
Comm    | 16.619     | 17.205     | 17.817     |   8.2 |  4.96
Output  | 2.9135e-05 | 3.9621e-05 | 0.0002502  |   0.0 |  0.00
Modify  | 58.429     | 58.849     | 59.271     |   3.1 | 16.96
Other   |            | 1.299      |            |       |  0.37

Nlocal:          124.5 ave         146 max         113 min
Histogram: 5 5 3 3 4 5 2 0 0 1
Nghost:        5001.25 ave        5029 max        4959 min
Histogram: 1 1 2 1 4 4 2 4 5 4
Neighs:          51586 ave       61901 max       42205 min
Histogram: 1 3 3 5 5 2 3 3 1 2

Total # of neighbors = 1444407
Ave neighs/atom = 414.34509
Ave special neighs/atom = 2.0929432
Neighbor list builds = 24428
Dangerous builds = 0

CITE-CITE-CITE-CITE-CITE-CITE-CITE-CITE-CITE-CITE-CITE-CITE-CITE

Your simulation uses code contributions which should be cited:
- fix ave/ordern command:
The log file lists these citations in BibTeX format.

CITE-CITE-CITE-CITE-CITE-CITE-CITE-CITE-CITE-CITE-CITE-CITE-CITE

PPPM initialization ...
  extracting TIP4P info from pair style
  using 12-bit tables for long-range coulomb (../kspace.cpp:342)
  G vector (1/distance) = 0.31046087
  grid = 30 30 30
  stencil order = 5
  estimated absolute RMS force accuracy = 0.0037467932
  estimated relative force accuracy = 1.1283357e-05
  using double precision KISS FFT
  3d grid and FFT values/proc = 5808 1800
Generated 0 of 15 mixed pair_coeff terms from arithmetic mixing rule
Setting up Verlet run ...
  Unit style    : real
  Current step  : 0
  Time step     : 2
Per MPI rank memory allocation (min/avg/max) = 19.2 | 19.23 | 19.29 Mbytes
   Step        Density          Temp          Press          TotEng    
         0   1.2121114      297.19119      2565.7626     -31154.127    
    100000   1.2121114      297.79897     -560.32533     -31117.661    
    200000   1.2121114      287.15363     -574.85812     -31308.539    
    300000   1.2121114      314.59113     -64.035395     -31104.85     
    400000   1.2121114      300.17512      144.08905     -31172.188    
    500000   1.2121114      291.48729     -616.79616     -31193.331    
    600000   1.2121114      296.9818      -562.77156     -31168.694    
    700000   1.2121114      289.31321     -75.023454     -31334.663    
    800000   1.2121114      287.90394     -659.74325     -31188.769    
    900000   1.2121114      302.83912     -577.20306     -31184.641    
   1000000   1.2121114      299.75395      455.03938     -31164.798    
Loop time of 5162.13 on 28 procs for 1000000 steps with 3486 atoms

Performance: 33.475 ns/day, 0.717 hours/ns, 193.718 timesteps/s
97.5% CPU use with 28 MPI tasks x no OpenMP threads

MPI task timing breakdown:
Section |  min time  |  avg time  |  max time  |%varavg| %total
---------------------------------------------------------------
Pair    | 2128.9     | 2402.9     | 2727.9     | 327.2 | 46.55
Bond    | 24.932     | 26.264     | 27.619     |  13.1 |  0.51
Kspace  | 1019.4     | 1347       | 1625.2     | 441.4 | 26.09
Neigh   | 352.46     | 356.77     | 359.6      |  11.1 |  6.91
Comm    | 174.68     | 178.29     | 182        |  13.7 |  3.45
Output  | 0.0051995  | 0.019817   | 0.022152   |   2.1 |  0.00
Modify  | 830.24     | 834.4      | 838.72     |   7.8 | 16.16
Other   |            | 16.43      |            |       |  0.32

Nlocal:          124.5 ave         135 max         110 min
Histogram: 1 2 2 3 3 1 4 2 9 1
Nghost:        4979.75 ave        5021 max        4928 min
Histogram: 2 2 1 2 5 2 5 4 3 2
Neighs:        51606.2 ave       58205 max       44988 min
Histogram: 4 3 0 4 1 2 6 5 0 3

Total # of neighbors = 1444974
Ave neighs/atom = 414.50775
Ave special neighs/atom = 2.0929432
Neighbor list builds = 248882
Dangerous builds = 0
PPPM initialization ...
  extracting TIP4P info from pair style
  using 12-bit tables for long-range coulomb (../kspace.cpp:342)
  G vector (1/distance) = 0.31046087
  grid = 30 30 30
  stencil order = 5
  estimated absolute RMS force accuracy = 0.0037467932
  estimated relative force accuracy = 1.1283357e-05
  using double precision KISS FFT
  3d grid and FFT values/proc = 5808 1800
Generated 0 of 15 mixed pair_coeff terms from arithmetic mixing rule
Setting up Verlet run ...
  Unit style    : real
  Current step  : 1000000
  Time step     : 2
Per MPI rank memory allocation (min/avg/max) = 19.2 | 19.28 | 19.42 Mbytes
   Step        Density          Temp          Press          TotEng    
   1000000   1.2121114      299.75395      3925.4979     -31164.798    
   1100000   1.2121114      300.06872     -116.23811     -31080.896    
   1200000   1.2121114      306.64546      17.639754     -31080.172    
   1300000   1.2121114      296.75848     -105.84882     -31155.492    
   1400000   1.2121114      306.13482     -205.27101     -31159.832    
   1500000   1.2121114      290.83858      552.0619      -31272.006    
   1600000   1.2121114      301.96767     -236.0745      -31099.811    
   1700000   1.2121114      303.91498      982.92026     -30992.941    
   1800000   1.2121114      288.64516     -936.43039     -31210.929    
   1900000   1.2121114      307.34509     -809.47895     -31068.371    
   2000000   1.2121114      297.60659     -498.0862      -31107.483    
Loop time of 5166.82 on 28 procs for 1000000 steps with 3486 atoms

Performance: 33.444 ns/day, 0.718 hours/ns, 193.543 timesteps/s
97.5% CPU use with 28 MPI tasks x no OpenMP threads

MPI task timing breakdown:
Section |  min time  |  avg time  |  max time  |%varavg| %total
---------------------------------------------------------------
Pair    | 2087.8     | 2400.8     | 2729.9     | 341.8 | 46.47
Bond    | 24.978     | 26.296     | 27.831     |  13.9 |  0.51
Kspace  | 1024.7     | 1355.4     | 1670.8     | 459.1 | 26.23
Neigh   | 350.99     | 355.25     | 358.15     |  10.9 |  6.88
Comm    | 175.52     | 178.46     | 181.95     |  12.4 |  3.45
Output  | 0.0018813  | 0.0030992  | 0.0052002  |   1.2 |  0.00
Modify  | 830.27     | 834.27     | 838.66     |   7.8 | 16.15
Other   |            | 16.35      |            |       |  0.32

Nlocal:          124.5 ave         137 max         113 min
Histogram: 2 2 3 4 5 3 1 4 2 2
Nghost:        4988.79 ave        5029 max        4951 min
Histogram: 2 2 4 6 3 3 1 2 1 4
Neighs:        51615.4 ave       58433 max       41642 min
Histogram: 1 0 1 5 2 6 2 4 4 3

Total # of neighbors = 1445230
Ave neighs/atom = 414.58118
Ave special neighs/atom = 2.0929432
Neighbor list builds = 246740
Dangerous builds = 0
PPPM initialization ...
  extracting TIP4P info from pair style
  using 12-bit tables for long-range coulomb (../kspace.cpp:342)
  G vector (1/distance) = 0.31046087
  grid = 30 30 30
  stencil order = 5
  estimated absolute RMS force accuracy = 0.0037467932
  estimated relative force accuracy = 1.1283357e-05
  using double precision KISS FFT
  3d grid and FFT values/proc = 5808 1800
Generated 0 of 15 mixed pair_coeff terms from arithmetic mixing rule
Setting up Verlet run ...
  Unit style    : real
  Current step  : 2000000
  Time step     : 2
Per MPI rank memory allocation (min/avg/max) = 19.21 | 19.33 | 19.42 Mbytes
   Step        Density          Temp          Press          TotEng    
   2000000   1.2121114      297.60659      1963.5729     -31107.483    
   2100000   1.2121114      301.03168     -19.095299     -31095.674    
   2200000   1.2121114      294.88254     -268.21708     -31184.576    
   2300000   1.2121114      290.55344     -855.22568     -31161.127    
   2400000   1.2121114      293.54521     -496.041       -31150.951    
   2500000   1.2121114      289.80247     -64.768631     -31176.674    
   2600000   1.2121114      292.67877     -328.91602     -31207.901    
   2700000   1.2121114      295.67097     -424.98149     -31166.257    
   2800000   1.2121114      297.2625      -723.4707      -31195.469    
   2900000   1.2121114      309.2872       419.21304     -31086.23     
   3000000   1.2121114      290.6253      -264.52475     -31279.836    
Loop time of 5182.25 on 28 procs for 1000000 steps with 3486 atoms

Performance: 33.345 ns/day, 0.720 hours/ns, 192.966 timesteps/s
97.5% CPU use with 28 MPI tasks x no OpenMP threads

MPI task timing breakdown:
Section |  min time  |  avg time  |  max time  |%varavg| %total
---------------------------------------------------------------
Pair    | 2137.3     | 2399.4     | 2725       | 329.7 | 46.30
Bond    | 24.766     | 26.269     | 27.548     |  12.1 |  0.51
Kspace  | 1034.2     | 1362.1     | 1625.7     | 441.6 | 26.28
Neigh   | 358.23     | 362.7      | 365.65     |  11.1 |  7.00
Comm    | 175.51     | 178.9      | 182.47     |  13.3 |  3.45
Output  | 0.0015914  | 0.0037397  | 0.0060332  |   1.4 |  0.00
Modify  | 832.71     | 836.57     | 840.98     |   7.7 | 16.14
Other   |            | 16.4       |            |       |  0.32

Nlocal:          124.5 ave         133 max         113 min
Histogram: 3 0 1 3 1 5 4 5 1 5
Nghost:        4986.68 ave        5036 max        4930 min
Histogram: 1 0 3 6 2 6 2 4 3 1
Neighs:        51603.9 ave       61616 max       43973 min
Histogram: 2 2 4 6 5 1 4 2 1 1

Total # of neighbors = 1444908
Ave neighs/atom = 414.48881
Ave special neighs/atom = 2.0929432
Neighbor list builds = 250773
Dangerous builds = 0
PPPM initialization ...
  extracting TIP4P info from pair style
  using 12-bit tables for long-range coulomb (../kspace.cpp:342)
  G vector (1/distance) = 0.31046087
  grid = 30 30 30
  stencil order = 5
  estimated absolute RMS force accuracy = 0.0037467932
  estimated relative force accuracy = 1.1283357e-05
  using double precision KISS FFT
  3d grid and FFT values/proc = 5808 1800
Generated 0 of 15 mixed pair_coeff terms from arithmetic mixing rule
Setting up Verlet run ...
  Unit style    : real
  Current step  : 3000000
  Time step     : 2
Per MPI rank memory allocation (min/avg/max) = 19.21 | 19.34 | 19.42 Mbytes
   Step        Density          Temp          Press          TotEng    
   3000000   1.2121114      290.6253      -44.675093     -31279.836    
   3100000   1.2121114      284.25243     -397.13543     -31253.96     
   3200000   1.2121114      291.81717      677.21254     -31155.597    
   3300000   1.2121114      293.9297      -618.81917     -31200.15     
   3400000   1.2121114      305.05203      459.54129     -31046.123    
   3500000   1.2121114      298.14184      77.178414     -31106.971    
   3600000   1.2121114      287.93355      238.61252     -31168.782    
   3700000   1.2121114      306.24264      424.63882     -31058.112    
   3800000   1.2121114      295.0745       1101.4554     -31149.164    
   3900000   1.2121114      305.91807     -63.190257     -31182.842    
   4000000   1.2121114      302.1429       665.13505     -31156.621    
Loop time of 5176.57 on 28 procs for 1000000 steps with 3486 atoms

Performance: 33.381 ns/day, 0.719 hours/ns, 193.178 timesteps/s
97.4% CPU use with 28 MPI tasks x no OpenMP threads

MPI task timing breakdown:
Section |  min time  |  avg time  |  max time  |%varavg| %total
---------------------------------------------------------------
Pair    | 2094.7     | 2405.1     | 2730.1     | 341.1 | 46.46
Bond    | 25.1       | 26.267     | 27.554     |  12.1 |  0.51
Kspace  | 1030.1     | 1357.3     | 1671.6     | 458.3 | 26.22
Neigh   | 354.85     | 359.13     | 362.05     |  11.1 |  6.94
Comm    | 175        | 178.33     | 181.79     |  13.5 |  3.45
Output  | 0.00098769 | 0.0037633  | 0.0058514  |   1.3 |  0.00
Modify  | 830.36     | 834.13     | 838.44     |   7.7 | 16.11
Other   |            | 16.39      |            |       |  0.32

Nlocal:          124.5 ave         139 max         116 min
Histogram: 3 4 3 6 5 5 0 1 0 1
Nghost:           4994 ave        5043 max        4936 min
Histogram: 2 0 2 6 1 4 5 4 2 2
Neighs:        51608.8 ave       62715 max       45228 min
Histogram: 1 6 8 2 4 3 1 2 0 1

Total # of neighbors = 1445047
Ave neighs/atom = 414.52869
Ave special neighs/atom = 2.0929432
Neighbor list builds = 248294
Dangerous builds = 0
PPPM initialization ...
  extracting TIP4P info from pair style
  using 12-bit tables for long-range coulomb (../kspace.cpp:342)
  G vector (1/distance) = 0.31046087
  grid = 30 30 30
  stencil order = 5
  estimated absolute RMS force accuracy = 0.0037467932
  estimated relative force accuracy = 1.1283357e-05
  using double precision KISS FFT
  3d grid and FFT values/proc = 5808 1800
Generated 0 of 15 mixed pair_coeff terms from arithmetic mixing rule
Setting up Verlet run ...
  Unit style    : real
  Current step  : 4000000
  Time step     : 2
Per MPI rank memory allocation (min/avg/max) = 19.21 | 19.35 | 19.42 Mbytes
   Step        Density          Temp          Press          TotEng    
   4000000   1.2121114      302.1429       4419.0177     -31156.621    
   4100000   1.2121114      298.3357      -4.4189644     -31157.767    
   4200000   1.2121114      294.04731     -780.20064     -31157.037    
   4300000   1.2121114      289.90152      12.656638     -31242.86     
   4400000   1.2121114      305.2506       379.95462     -31053.723    
   4500000   1.2121114      289.09114     -375.94477     -31182.76     
   4600000   1.2121114      295.82061      102.52779     -31257.197    
   4700000   1.2121114      293.59371      243.89042     -31252.222    
   4800000   1.2121114      296.52241      6.3658652     -31132.041    
   4900000   1.2121114      303.0711      -181.27897     -31096.951    
   5000000   1.2121114      291.87337     -957.18059     -31274.6      
Loop time of 5170.09 on 28 procs for 1000000 steps with 3486 atoms

Performance: 33.423 ns/day, 0.718 hours/ns, 193.420 timesteps/s
97.5% CPU use with 28 MPI tasks x no OpenMP threads

MPI task timing breakdown:
Section |  min time  |  avg time  |  max time  |%varavg| %total
---------------------------------------------------------------
Pair    | 2106.7     | 2404.5     | 2716.1     | 330.6 | 46.51
Bond    | 25.203     | 26.329     | 27.459     |  12.1 |  0.51
Kspace  | 1032.9     | 1346.8     | 1648.6     | 446.0 | 26.05
Neigh   | 356.27     | 360.88     | 363.79     |  11.3 |  6.98
Comm    | 175.85     | 179.2      | 183        |  13.6 |  3.47
Output  | 0.0016251  | 0.0037219  | 0.0053371  |   1.2 |  0.00
Modify  | 832.35     | 836.01     | 840.36     |   7.6 | 16.17
Other   |            | 16.37      |            |       |  0.32

Nlocal:          124.5 ave         139 max         111 min
Histogram: 3 2 1 3 5 4 4 3 1 2
Nghost:           5014 ave        5060 max        4970 min
Histogram: 1 5 3 2 3 1 4 6 2 1
Neighs:        51604.5 ave       61551 max       42285 min
Histogram: 1 3 3 2 3 8 4 3 0 1

Total # of neighbors = 1444927
Ave neighs/atom = 414.49426
Ave special neighs/atom = 2.0929432
Neighbor list builds = 250635
Dangerous builds = 0
PPPM initialization ...
  extracting TIP4P info from pair style
  using 12-bit tables for long-range coulomb (../kspace.cpp:342)
  G vector (1/distance) = 0.31046087
  grid = 30 30 30
  stencil order = 5
  estimated absolute RMS force accuracy = 0.0037467932
  estimated relative force accuracy = 1.1283357e-05
  using double precision KISS FFT
  3d grid and FFT values/proc = 5808 1800
Generated 0 of 15 mixed pair_coeff terms from arithmetic mixing rule
Setting up Verlet run ...
  Unit style    : real
  Current step  : 5000000
  Time step     : 2
Per MPI rank memory allocation (min/avg/max) = 19.21 | 19.36 | 19.42 Mbytes
   Step        Density          Temp          Press          TotEng    
   5000000   1.2121114      291.87337      1454.7052     -31274.6      
   5100000   1.2121114      289.83996     -522.32094     -31247.821    
   5200000   1.2121114      304.05253      353.17412     -31154.005    
   5300000   1.2121114      302.94984     -402.26556     -31090.288    
   5400000   1.2121114      293.77739      155.83687     -31203.814    
   5500000   1.2121114      288.8155      -71.049772     -31217.942    
   5600000   1.2121114      289.69206     -439.72766     -31240.428    
   5700000   1.2121114      284.46148     -612.95428     -31399.388    
   5800000   1.2121114      298.05551     -366.33099     -31144.907    
   5900000   1.2121114      300.74314     -185.09734     -31129.278    
   6000000   1.2121114      297.68286     -562.4684      -31192.847    
Loop time of 5165.78 on 28 procs for 1000000 steps with 3486 atoms

Performance: 33.451 ns/day, 0.717 hours/ns, 193.582 timesteps/s
97.4% CPU use with 28 MPI tasks x no OpenMP threads

MPI task timing breakdown:
Section |  min time  |  avg time  |  max time  |%varavg| %total
---------------------------------------------------------------
Pair    | 2112.7     | 2403.6     | 2694.7     | 327.4 | 46.53
Bond    | 25.028     | 26.342     | 27.641     |  12.2 |  0.51
Kspace  | 1052.7     | 1346.7     | 1641.8     | 441.5 | 26.07
Neigh   | 353.83     | 358.24     | 361.02     |  11.3 |  6.93
Comm    | 175.8      | 178.79     | 182.42     |  13.1 |  3.46
Output  | 0.002038   | 0.0029867  | 0.0054663  |   1.5 |  0.00
Modify  | 832.03     | 835.71     | 840.12     |   7.7 | 16.18
Other   |            | 16.44      |            |       |  0.32

Nlocal:          124.5 ave         141 max         106 min
Histogram: 1 0 0 7 6 3 6 1 3 1
Nghost:        4992.29 ave        5035 max        4927 min
Histogram: 1 0 1 4 2 6 4 4 3 3
Neighs:        51599.9 ave       63707 max       43859 min
Histogram: 3 5 1 5 6 3 2 2 0 1

Total # of neighbors = 1444798
Ave neighs/atom = 414.45726
Ave special neighs/atom = 2.0929432
Neighbor list builds = 249579
Dangerous builds = 0
PPPM initialization ...
  extracting TIP4P info from pair style
  using 12-bit tables for long-range coulomb (../kspace.cpp:342)
  G vector (1/distance) = 0.31046087
  grid = 30 30 30
  stencil order = 5
  estimated absolute RMS force accuracy = 0.0037467932
  estimated relative force accuracy = 1.1283357e-05
  using double precision KISS FFT
  3d grid and FFT values/proc = 5808 1800
Generated 0 of 15 mixed pair_coeff terms from arithmetic mixing rule
Setting up Verlet run ...
  Unit style    : real
  Current step  : 6000000
  Time step     : 2
Per MPI rank memory allocation (min/avg/max) = 19.25 | 19.37 | 19.42 Mbytes
   Step        Density          Temp          Press          TotEng    
   6000000   1.2121114      297.68286     -1804.7882     -31192.847    
   6100000   1.2121114      284.80385     -329.2484      -31332.255    
   6200000   1.2121114      295.35784     -395.24058     -31185.642    
   6300000   1.2121114      298.89805     -518.3282      -31250.456    
   6400000   1.2121114      297.7811      -542.2807      -31160.257    
   6500000   1.2121114      304.18283      118.87044     -31150.447    
   6600000   1.2121114      293.32464     -219.46141     -31149.044    
   6700000   1.2121114      302.89258      74.619365     -31210.913    
   6800000   1.2121114      296.40166      568.4891      -31227.003    
   6900000   1.2121114      298.22388     -915.77701     -31136.011    
   7000000   1.2121114      301.57855      185.2238      -31192.513    
Loop time of 5158.98 on 28 procs for 1000000 steps with 3486 atoms

Performance: 33.495 ns/day, 0.717 hours/ns, 193.837 timesteps/s
97.5% CPU use with 28 MPI tasks x no OpenMP threads

MPI task timing breakdown:
Section |  min time  |  avg time  |  max time  |%varavg| %total
---------------------------------------------------------------
Pair    | 2111.1     | 2410.4     | 2694.8     | 327.2 | 46.72
Bond    | 25.073     | 26.38      | 27.474     |  12.7 |  0.51
Kspace  | 1050.6     | 1336.6     | 1640.4     | 443.9 | 25.91
Neigh   | 350.99     | 355.28     | 358.14     |  10.9 |  6.89
Comm    | 175.72     | 178.29     | 182.31     |  13.2 |  3.46
Output  | 0.00097096 | 0.0032779  | 0.0042586  |   1.2 |  0.00
Modify  | 831.9      | 835.74     | 839.96     |   7.5 | 16.20
Other   |            | 16.32      |            |       |  0.32

Nlocal:          124.5 ave         138 max         107 min
Histogram: 1 0 3 1 7 5 4 1 4 2
Nghost:        5013.61 ave        5047 max        4986 min
Histogram: 2 4 2 7 1 6 1 0 2 3
Neighs:        51612.5 ave       57634 max       42419 min
Histogram: 2 1 0 2 5 2 4 3 5 4

Total # of neighbors = 1445151
Ave neighs/atom = 414.55852
Ave special neighs/atom = 2.0929432
Neighbor list builds = 246908
Dangerous builds = 0
PPPM initialization ...
  extracting TIP4P info from pair style
  using 12-bit tables for long-range coulomb (../kspace.cpp:342)
  G vector (1/distance) = 0.31046087
  grid = 30 30 30
  stencil order = 5
  estimated absolute RMS force accuracy = 0.0037467932
  estimated relative force accuracy = 1.1283357e-05
  using double precision KISS FFT
  3d grid and FFT values/proc = 5808 1800
Generated 0 of 15 mixed pair_coeff terms from arithmetic mixing rule
Setting up Verlet run ...
  Unit style    : real
  Current step  : 7000000
  Time step     : 2
Per MPI rank memory allocation (min/avg/max) = 19.25 | 19.37 | 19.42 Mbytes
   Step        Density          Temp          Press          TotEng    
   7000000   1.2121114      301.57855      405.59282     -31192.513    
   7100000   1.2121114      308.40643     -555.30431     -31162.35     
   7200000   1.2121114      293.43542      223.72371     -31200.448    
   7300000   1.2121114      299.75906      269.88928     -31107.791    
   7400000   1.2121114      301.39317     -60.771739     -31111.688    
   7500000   1.2121114      293.2157       423.53871     -31257.674    
   7600000   1.2121114      298.53174     -191.42501     -31135.064    
   7700000   1.2121114      296.134       -677.32285     -31148.903    
   7800000   1.2121114      305.62289     -418.25642     -31075.764    
   7900000   1.2121114      293.16243      330.24563     -31268.173    
   8000000   1.2121114      293.47223      212.15171     -31175.72     
Loop time of 5162.82 on 28 procs for 1000000 steps with 3486 atoms

Performance: 33.470 ns/day, 0.717 hours/ns, 193.693 timesteps/s
97.5% CPU use with 28 MPI tasks x no OpenMP threads

MPI task timing breakdown:
Section |  min time  |  avg time  |  max time  |%varavg| %total
---------------------------------------------------------------
Pair    | 2096.8     | 2401.8     | 2709.9     | 319.9 | 46.52
Bond    | 24.975     | 26.354     | 27.407     |  12.8 |  0.51
Kspace  | 1030.5     | 1341.9     | 1649.1     | 432.3 | 25.99
Neigh   | 355.81     | 360.27     | 363.1      |  11.3 |  6.98
Comm    | 175.76     | 178.9      | 183.18     |  13.9 |  3.47
Output  | 0.0018509  | 0.0032342  | 0.0048686  |   1.3 |  0.00
Modify  | 833.39     | 837.26     | 841.41     |   7.5 | 16.22
Other   |            | 16.36      |            |       |  0.32

Nlocal:          124.5 ave         133 max         109 min
Histogram: 1 0 2 2 1 5 5 3 4 5
Nghost:        4985.75 ave        5039 max        4950 min
Histogram: 5 3 3 1 7 2 3 2 1 1
Neighs:        51606.2 ave       60297 max       41448 min
Histogram: 1 1 3 2 5 4 4 6 1 1

Total # of neighbors = 1444975
Ave neighs/atom = 414.50803
Ave special neighs/atom = 2.0929432
Neighbor list builds = 250326
Dangerous builds = 0
PPPM initialization ...
  extracting TIP4P info from pair style
  using 12-bit tables for long-range coulomb (../kspace.cpp:342)
  G vector (1/distance) = 0.31046087
  grid = 30 30 30
  stencil order = 5
  estimated absolute RMS force accuracy = 0.0037467932
  estimated relative force accuracy = 1.1283357e-05
  using double precision KISS FFT
  3d grid and FFT values/proc = 5808 1800
Generated 0 of 15 mixed pair_coeff terms from arithmetic mixing rule
Setting up Verlet run ...
  Unit style    : real
  Current step  : 8000000
  Time step     : 2
Per MPI rank memory allocation (min/avg/max) = 19.25 | 19.37 | 19.42 Mbytes
   Step        Density          Temp          Press          TotEng    
   8000000   1.2121114      293.47223      2298.8387     -31175.72     
   8100000   1.2121114      294.8712       114.86397     -31188.554    
   8200000   1.2121114      306.55754      630.93715     -31047.677    
   8300000   1.2121114      301.49227      624.06571     -31118.691    
   8400000   1.2121114      307.16189     -384.82512     -31106.819    
   8500000   1.2121114      297.717       -456.70872     -31144.592    
   8600000   1.2121114      287.8304       386.44336     -31293.554    
   8700000   1.2121114      297.35898     -170.38215     -31200.438    
   8800000   1.2121114      296.46704      466.76596     -31207.766    
   8900000   1.2121114      294.50653      141.26933     -31144.657    
   9000000   1.2121114      299.45424     -380.47778     -31156.383    
Loop time of 5160.13 on 28 procs for 1000000 steps with 3486 atoms

Performance: 33.488 ns/day, 0.717 hours/ns, 193.793 timesteps/s
97.5% CPU use with 28 MPI tasks x no OpenMP threads

MPI task timing breakdown:
Section |  min time  |  avg time  |  max time  |%varavg| %total
---------------------------------------------------------------
Pair    | 2105.3     | 2401.9     | 2716       | 329.3 | 46.55
Bond    | 25.102     | 26.376     | 27.795     |  13.0 |  0.51
Kspace  | 1030.4     | 1346.4     | 1647.1     | 444.2 | 26.09
Neigh   | 349.86     | 354.1      | 357        |  11.3 |  6.86
Comm    | 175.32     | 178.37     | 182.14     |  13.9 |  3.46
Output  | 0.00043799 | 0.0041651  | 0.0061421  |   1.6 |  0.00
Modify  | 832.72     | 836.61     | 840.86     |   7.5 | 16.21
Other   |            | 16.34      |            |       |  0.32

Nlocal:          124.5 ave         134 max         110 min
Histogram: 1 0 1 3 4 5 5 3 2 4
Nghost:           5001 ave        5039 max        4945 min
Histogram: 1 0 3 2 3 5 4 5 1 4
Neighs:        51614.6 ave       58348 max       44418 min
Histogram: 3 4 2 0 2 4 4 4 4 1

Total # of neighbors = 1445210
Ave neighs/atom = 414.57544
Ave special neighs/atom = 2.0929432
Neighbor list builds = 246995
Dangerous builds = 0
PPPM initialization ...
  extracting TIP4P info from pair style
  using 12-bit tables for long-range coulomb (../kspace.cpp:342)
  G vector (1/distance) = 0.31046087
  grid = 30 30 30
  stencil order = 5
  estimated absolute RMS force accuracy = 0.0037467932
  estimated relative force accuracy = 1.1283357e-05
  using double precision KISS FFT
  3d grid and FFT values/proc = 5808 1800
Generated 0 of 15 mixed pair_coeff terms from arithmetic mixing rule
Setting up Verlet run ...
  Unit style    : real
  Current step  : 9000000
  Time step     : 2
Per MPI rank memory allocation (min/avg/max) = 19.29 | 19.38 | 19.42 Mbytes
   Step        Density          Temp          Press          TotEng    
   9000000   1.2121114      299.45424      1849.0276     -31156.383    
   9100000   1.2121114      296.58577     -761.01786     -31183.562    
   9200000   1.2121114      297.30884      196.0113      -31147.502    
   9300000   1.2121114      297.24075      390.7967      -31109.446    
   9400000   1.2121114      303.72587      1191.0518     -31130.059    
   9500000   1.2121114      292.15346      99.282387     -31098.765    
   9600000   1.2121114      293.33542     -579.70924     -31116.298    
   9700000   1.2121114      298.40974     -674.3547      -31085.427    
   9800000   1.2121114      294.39887      1041.9221     -31273.514    
   9900000   1.2121114      292.75844     -580.06646     -31227.826    
  10000000   1.2121114      289.00262      551.95949     -31209.322    
Loop time of 5156.76 on 28 procs for 1000000 steps with 3486 atoms

Performance: 33.509 ns/day, 0.716 hours/ns, 193.920 timesteps/s
97.5% CPU use with 28 MPI tasks x no OpenMP threads

MPI task timing breakdown:
Section |  min time  |  avg time  |  max time  |%varavg| %total
---------------------------------------------------------------
Pair    | 2106.5     | 2399.8     | 2706.8     | 334.3 | 46.54
Bond    | 25.169     | 26.298     | 27.541     |  11.5 |  0.51
Kspace  | 1036.1     | 1344.7     | 1642.2     | 450.7 | 26.08
Neigh   | 350.42     | 354.67     | 357.69     |  11.1 |  6.88
Comm    | 176.07     | 178.66     | 182.61     |  13.0 |  3.46
Output  | 0.0013621  | 0.0041915  | 0.0063304  |   1.5 |  0.00
Modify  | 832.43     | 836.26     | 840.09     |   7.2 | 16.22
Other   |            | 16.36      |            |       |  0.32

Nlocal:          124.5 ave         143 max         108 min
Histogram: 2 1 1 5 8 2 6 0 2 1
Nghost:        4974.68 ave        5020 max        4927 min
Histogram: 1 1 4 1 2 12 2 3 1 1
Neighs:        51601.7 ave       62317 max       40951 min
Histogram: 1 1 4 4 6 1 5 4 0 2

Total # of neighbors = 1444847
Ave neighs/atom = 414.47131
Ave special neighs/atom = 2.0929432
Neighbor list builds = 247991
Dangerous builds = 0
PPPM initialization ...
  extracting TIP4P info from pair style
  using 12-bit tables for long-range coulomb (../kspace.cpp:342)
  G vector (1/distance) = 0.31046087
  grid = 30 30 30
  stencil order = 5
  estimated absolute RMS force accuracy = 0.0037467932
  estimated relative force accuracy = 1.1283357e-05
  using double precision KISS FFT
  3d grid and FFT values/proc = 5808 1800
Generated 0 of 15 mixed pair_coeff terms from arithmetic mixing rule
Setting up Verlet run ...
  Unit style    : real
  Current step  : 10000000
  Time step     : 2
Per MPI rank memory allocation (min/avg/max) = 19.29 | 19.38 | 19.42 Mbytes
   Step        Density          Temp          Press          TotEng    
  10000000   1.2121114      289.00262      330.84886     -31209.322    
  10100000   1.2121114      291.40462     -230.99531     -31170.124    
  10200000   1.2121114      296.99513      1037.9232     -31141.736    
  10300000   1.2121114      293.87087     -508.9413      -31249.601    
  10400000   1.2121114      302.97225     -103.40633     -31160.029    
  10500000   1.2121114      309.6694       35.414323     -31015.061    
  10600000   1.2121114      292.8839      -227.31781     -31201.273    
  10700000   1.2121114      300.47874     -216.9644      -31170.849    
  10800000   1.2121114      296.47533      917.82381     -31218.773    
  10900000   1.2121114      294.32679      294.19166     -31173.928    
  11000000   1.2121114      301.993        769.48593     -31154.448    
Loop time of 5176.83 on 28 procs for 1000000 steps with 3486 atoms

Performance: 33.379 ns/day, 0.719 hours/ns, 193.168 timesteps/s
97.4% CPU use with 28 MPI tasks x no OpenMP threads

MPI task timing breakdown:
Section |  min time  |  avg time  |  max time  |%varavg| %total
---------------------------------------------------------------
Pair    | 2094.6     | 2392.4     | 2736.9     | 343.9 | 46.21
Bond    | 25.118     | 26.286     | 27.247     |  12.9 |  0.51
Kspace  | 1024       | 1371.4     | 1670.9     | 458.3 | 26.49
Neigh   | 351.75     | 356.03     | 358.88     |  10.9 |  6.88
Comm    | 175.52     | 178.66     | 182.52     |  13.4 |  3.45
Output  | 0.0013415  | 0.0036627  | 0.0051875  |   1.3 |  0.00
Modify  | 831.89     | 835.81     | 839.96     |   7.6 | 16.15
Other   |            | 16.33      |            |       |  0.32

Nlocal:          124.5 ave         139 max         113 min
Histogram: 4 3 3 3 3 0 7 3 1 1
Nghost:        4996.82 ave        5081 max        4951 min
Histogram: 2 7 2 7 4 3 1 1 0 1
Neighs:        51602.1 ave       59776 max       44546 min
Histogram: 4 0 5 4 3 3 3 1 3 2

Total # of neighbors = 1444860
Ave neighs/atom = 414.47504
Ave special neighs/atom = 2.0929432
Neighbor list builds = 248533
Dangerous builds = 0
PPPM initialization ...
  extracting TIP4P info from pair style
  using 12-bit tables for long-range coulomb (../kspace.cpp:342)
  G vector (1/distance) = 0.31046087
  grid = 30 30 30
  stencil order = 5
  estimated absolute RMS force accuracy = 0.0037467932
  estimated relative force accuracy = 1.1283357e-05
  using double precision KISS FFT
  3d grid and FFT values/proc = 5808 1800
Generated 0 of 15 mixed pair_coeff terms from arithmetic mixing rule
Setting up Verlet run ...
  Unit style    : real
  Current step  : 11000000
  Time step     : 2
Per MPI rank memory allocation (min/avg/max) = 19.29 | 19.38 | 19.42 Mbytes
   Step        Density          Temp          Press          TotEng    
  11000000   1.2121114      301.993        3282.2975     -31154.448    
  11100000   1.2121114      295.98327      296.96328     -31217.678    
  11200000   1.2121114      289.051        17.467658     -31180.147    
  11300000   1.2121114      293.2434       159.99914     -31241.949    
  11400000   1.2121114      303.94837     -580.73514     -31075.285    
  11500000   1.2121114      303.60818     -367.34623     -31082.81     
  11600000   1.2121114      294.77602      180.77174     -31204.311    
  11700000   1.2121114      302.2346       93.919543     -31081.959    
  11800000   1.2121114      294.14673      3.8874573     -31230.664    
  11900000   1.2121114      304.56584      137.48447     -31056.665    
  12000000   1.2121114      294.97248     -806.75058     -31288.033    
Loop time of 5171.27 on 28 procs for 1000000 steps with 3486 atoms

Performance: 33.415 ns/day, 0.718 hours/ns, 193.376 timesteps/s
97.4% CPU use with 28 MPI tasks x no OpenMP threads

MPI task timing breakdown:
Section |  min time  |  avg time  |  max time  |%varavg| %total
---------------------------------------------------------------
Pair    | 2095.3     | 2396.5     | 2717.3     | 343.3 | 46.34
Bond    | 25.282     | 26.238     | 27.288     |  10.4 |  0.51
Kspace  | 1035.3     | 1357.9     | 1661.4     | 460.2 | 26.26
Neigh   | 354.81     | 358.97     | 361.93     |  11.1 |  6.94
Comm    | 175.5      | 178.92     | 182.92     |  13.9 |  3.46
Output  | 0.0011698  | 0.0041451  | 0.00643    |   1.4 |  0.00
Modify  | 832.18     | 836.31     | 840.73     |   7.6 | 16.17
Other   |            | 16.39      |            |       |  0.32

Nlocal:          124.5 ave         133 max         112 min
Histogram: 2 0 2 3 4 1 3 5 5 3
Nghost:        5005.89 ave        5045 max        4983 min
Histogram: 7 3 2 3 3 3 3 2 1 1
Neighs:        51585.2 ave       60824 max       44046 min
Histogram: 3 2 4 3 4 2 5 3 1 1

Total # of neighbors = 1444385
Ave neighs/atom = 414.33878
Ave special neighs/atom = 2.0929432
Neighbor list builds = 250324
Dangerous builds = 0
PPPM initialization ...
  extracting TIP4P info from pair style
  using 12-bit tables for long-range coulomb (../kspace.cpp:342)
  G vector (1/distance) = 0.31046087
  grid = 30 30 30
  stencil order = 5
  estimated absolute RMS force accuracy = 0.0037467932
  estimated relative force accuracy = 1.1283357e-05
  using double precision KISS FFT
  3d grid and FFT values/proc = 5808 1800
Generated 0 of 15 mixed pair_coeff terms from arithmetic mixing rule
Setting up Verlet run ...
  Unit style    : real
  Current step  : 12000000
  Time step     : 2
Per MPI rank memory allocation (min/avg/max) = 19.29 | 19.38 | 19.42 Mbytes
   Step        Density          Temp          Press          TotEng    
  12000000   1.2121114      294.97248      1900.6447     -31288.033    
  12100000   1.2121114      301.26855      81.690321     -31108.83     
  12200000   1.2121114      300.03291      89.757852     -31164.781    
  12300000   1.2121114      299.72776     -168.33754     -31106.189    
  12400000   1.2121114      297.96394     -561.58212     -31172.841    
  12500000   1.2121114      295.8737      -869.26688     -31197.798    
  12600000   1.2121114      303.09438      12.182745     -31074.916    
  12700000   1.2121114      303.75966     -608.78581     -31161.292    
  12800000   1.2121114      292.33371      342.55419     -31152.523    
  12900000   1.2121114      295.50409     -377.69717     -31147.544    
  13000000   1.2121114      296.513        461.80701     -31136.474    
Loop time of 5171.02 on 28 procs for 1000000 steps with 3486 atoms

Performance: 33.417 ns/day, 0.718 hours/ns, 193.385 timesteps/s
97.5% CPU use with 28 MPI tasks x no OpenMP threads

MPI task timing breakdown:
Section |  min time  |  avg time  |  max time  |%varavg| %total
---------------------------------------------------------------
Pair    | 2136.2     | 2402.4     | 2728.7     | 334.3 | 46.46
Bond    | 25.187     | 26.268     | 27.438     |  11.8 |  0.51
Kspace  | 1030.1     | 1359.4     | 1629.9     | 448.5 | 26.29
Neigh   | 349.12     | 353.39     | 356.22     |  10.9 |  6.83
Comm    | 175        | 178.23     | 182.36     |  13.5 |  3.45
Output  | 0.002093   | 0.0031086  | 0.0050883  |   1.1 |  0.00
Modify  | 830.93     | 834.95     | 839.19     |   7.5 | 16.15
Other   |            | 16.35      |            |       |  0.32

Nlocal:          124.5 ave         138 max         111 min
Histogram: 2 1 3 3 4 8 2 0 4 1
Nghost:        4994.96 ave        5047 max        4938 min
Histogram: 2 2 1 4 3 4 5 2 4 1
Neighs:        51600.4 ave       62193 max       44058 min
Histogram: 2 1 7 3 4 5 4 1 0 1

Total # of neighbors = 1444811
Ave neighs/atom = 414.46099
Ave special neighs/atom = 2.0929432
Neighbor list builds = 246723
Dangerous builds = 0
PPPM initialization ...
  extracting TIP4P info from pair style
  using 12-bit tables for long-range coulomb (../kspace.cpp:342)
  G vector (1/distance) = 0.31046087
  grid = 30 30 30
  stencil order = 5
  estimated absolute RMS force accuracy = 0.0037467932
  estimated relative force accuracy = 1.1283357e-05
  using double precision KISS FFT
  3d grid and FFT values/proc = 5808 1800
Generated 0 of 15 mixed pair_coeff terms from arithmetic mixing rule
Setting up Verlet run ...
  Unit style    : real
  Current step  : 13000000
  Time step     : 2
Per MPI rank memory allocation (min/avg/max) = 19.29 | 19.38 | 19.42 Mbytes
   Step        Density          Temp          Press          TotEng    
  13000000   1.2121114      296.513       -1499.2343     -31136.474    
  13100000   1.2121114      292.49743      585.63892     -31197.627    
  13200000   1.2121114      294.27083     -221.77013     -31144.747    
  13300000   1.2121114      301.34123     -25.896733     -31123.36     
  13400000   1.2121114      291.76881     -934.3861      -31255.954    
  13500000   1.2121114      299.3156       6.6354        -31170.674    
  13600000   1.2121114      286.11674      124.61868     -31357.01     
  13700000   1.2121114      290.99391     -44.617161     -31184.833    
  13800000   1.2121114      298.06528      353.37517     -31193.58     
  13900000   1.2121114      291.48375      898.86269     -31128.032    
  14000000   1.2121114      298.31554     -473.11605     -31127.891    
Loop time of 5202.37 on 28 procs for 1000000 steps with 3486 atoms

Performance: 33.216 ns/day, 0.723 hours/ns, 192.220 timesteps/s
97.4% CPU use with 28 MPI tasks x no OpenMP threads

MPI task timing breakdown:
Section |  min time  |  avg time  |  max time  |%varavg| %total
---------------------------------------------------------------
Pair    | 2107       | 2396.7     | 2761.9     | 346.7 | 46.07
Bond    | 25.079     | 26.259     | 27.569     |  12.1 |  0.50
Kspace  | 1017.5     | 1385.5     | 1679.4     | 460.0 | 26.63
Neigh   | 356.77     | 360.98     | 363.88     |  11.0 |  6.94
Comm    | 176.48     | 179.29     | 183.04     |  13.0 |  3.45
Output  | 0.0013113  | 0.0037688  | 0.0048163  |   1.2 |  0.00
Modify  | 833.36     | 837.31     | 841.53     |   7.5 | 16.09
Other   |            | 16.34      |            |       |  0.31

Nlocal:          124.5 ave         146 max         113 min
Histogram: 5 2 6 7 1 4 1 1 0 1
Nghost:        4999.86 ave        5047 max        4962 min
Histogram: 3 1 1 7 6 5 1 0 3 1
Neighs:        51585.6 ave       60895 max       44420 min
Histogram: 2 3 4 5 2 4 4 3 0 1

Total # of neighbors = 1444396
Ave neighs/atom = 414.34194
Ave special neighs/atom = 2.0929432
Neighbor list builds = 251913
Dangerous builds = 0
PPPM initialization ...
  extracting TIP4P info from pair style
  using 12-bit tables for long-range coulomb (../kspace.cpp:342)
  G vector (1/distance) = 0.31046087
  grid = 30 30 30
  stencil order = 5
  estimated absolute RMS force accuracy = 0.0037467932
  estimated relative force accuracy = 1.1283357e-05
  using double precision KISS FFT
  3d grid and FFT values/proc = 5808 1800
Generated 0 of 15 mixed pair_coeff terms from arithmetic mixing rule
Setting up Verlet run ...
  Unit style    : real
  Current step  : 14000000
  Time step     : 2
Per MPI rank memory allocation (min/avg/max) = 19.35 | 19.39 | 19.44 Mbytes
   Step        Density          Temp          Press          TotEng    
  14000000   1.2121114      298.31554      1855.9793     -31127.891    
  14100000   1.2121114      306.90503      1536.6992     -31113.28     
  14200000   1.2121114      300.12154      310.25622     -31199.228    
  14300000   1.2121114      290.64982     -172.42374     -31234.142    
  14400000   1.2121114      291.14359     -360.9506      -31149.867    
  14500000   1.2121114      294.13482      649.51413     -31244.99     
  14600000   1.2121114      295.04333     -56.561308     -31122.825    
  14700000   1.2121114      293.44684     -1118.7417     -31196.562    
  14800000   1.2121114      298.90748      210.30742     -31197.645    
  14900000   1.2121114      299.84201      576.78238     -31129.221    
  15000000   1.2121114      304.40849      719.3239      -31175.857    
Loop time of 5215.41 on 28 procs for 1000000 steps with 3486 atoms

Performance: 33.133 ns/day, 0.724 hours/ns, 191.739 timesteps/s
97.5% CPU use with 28 MPI tasks x no OpenMP threads

MPI task timing breakdown:
Section |  min time  |  avg time  |  max time  |%varavg| %total
---------------------------------------------------------------
Pair    | 2139       | 2408.7     | 2748.2     | 334.4 | 46.18
Bond    | 25.126     | 26.245     | 27.551     |  12.2 |  0.50
Kspace  | 1030       | 1372.4     | 1646.1     | 447.1 | 26.31
Neigh   | 368.04     | 372.57     | 375.49     |  11.3 |  7.14
Comm    | 177.34     | 180.49     | 184.62     |  13.8 |  3.46
Output  | 0.00089915 | 0.003577   | 0.0053525  |   1.5 |  0.00
Modify  | 834.44     | 838.65     | 842.94     |   7.8 | 16.08
Other   |            | 16.39      |            |       |  0.31

Nlocal:          124.5 ave         141 max         109 min
Histogram: 2 0 3 4 6 8 1 0 1 3
Nghost:        4999.64 ave        5054 max        4954 min
Histogram: 1 2 0 10 5 3 2 4 0 1
Neighs:        51641.1 ave       62073 max       41180 min
Histogram: 1 1 5 3 4 4 2 7 0 1

Total # of neighbors = 1445950
Ave neighs/atom = 414.78772
Ave special neighs/atom = 2.0929432
Neighbor list builds = 259902
Dangerous builds = 0
PPPM initialization ...
  extracting TIP4P info from pair style
  using 12-bit tables for long-range coulomb (../kspace.cpp:342)
  G vector (1/distance) = 0.31046087
  grid = 30 30 30
  stencil order = 5
  estimated absolute RMS force accuracy = 0.0037467932
  estimated relative force accuracy = 1.1283357e-05
  using double precision KISS FFT
  3d grid and FFT values/proc = 5808 1800
Generated 0 of 15 mixed pair_coeff terms from arithmetic mixing rule
Setting up Verlet run ...
  Unit style    : real
  Current step  : 15000000
  Time step     : 2
Per MPI rank memory allocation (min/avg/max) = 19.35 | 19.39 | 19.44 Mbytes
   Step        Density          Temp          Press          TotEng    
  15000000   1.2121114      304.40849      5198.1505     -31175.857    
  15100000   1.2121114      292.51877     -1158.5129     -31299.774    
  15200000   1.2121114      286.73953     -271.5885      -31284.236    
  15300000   1.2121114      296.45154     -12.845351     -31198.06     
  15400000   1.2121114      287.68002     -419.04114     -31292.575    
  15500000   1.2121114      300.3871      -238.81911     -31027.464    
  15600000   1.2121114      305.86833      31.201071     -31175.042    
  15700000   1.2121114      285.6349       490.28566     -31263.188    
  15800000   1.2121114      296.6756      -558.5318      -31241.625    
  15900000   1.2121114      289.94824     -351.66029     -31289.093    
  16000000   1.2121114      293.8877      -97.928702     -31183.151    
Loop time of 5193.89 on 28 procs for 1000000 steps with 3486 atoms

Performance: 33.270 ns/day, 0.721 hours/ns, 192.534 timesteps/s
97.5% CPU use with 28 MPI tasks x no OpenMP threads

MPI task timing breakdown:
Section |  min time  |  avg time  |  max time  |%varavg| %total
---------------------------------------------------------------
Pair    | 2129.7     | 2403.8     | 2705.8     | 328.9 | 46.28
Bond    | 25.255     | 26.341     | 27.554     |  11.4 |  0.51
Kspace  | 1048.4     | 1353.5     | 1629.8     | 442.4 | 26.06
Neigh   | 367.32     | 371.87     | 374.81     |  11.3 |  7.16
Comm    | 177.87     | 180.89     | 185.01     |  13.3 |  3.48
Output  | 0.00059342 | 0.0037949  | 0.0068235  |   1.7 |  0.00
Modify  | 837.2      | 841.07     | 845.29     |   7.6 | 16.19
Other   |            | 16.4       |            |       |  0.32

Nlocal:          124.5 ave         133 max         111 min
Histogram: 2 2 2 0 3 3 4 3 1 8
Nghost:        4983.25 ave        5010 max        4951 min
Histogram: 2 1 1 6 2 1 4 7 2 2
Neighs:        51600.4 ave       60202 max       42245 min
Histogram: 2 0 1 5 7 5 1 2 2 3

Total # of neighbors = 1444812
Ave neighs/atom = 414.46127
Ave special neighs/atom = 2.0929432
Neighbor list builds = 259894
Dangerous builds = 0
