created by fftool

3378 atoms
2270 bonds
1324 angles
6 atom types
3 bond types
2 angle types
0.000000 33.261590 xlo xhi
0.000000 33.261590 ylo yhi
0.000000 33.261590 zlo zhi

Masses

   1   15.999  # Ow
   2    1.008  # Hw
   3   22.940  # Na
   4    0.050  # M
   5   10.811  # B
   6   17.008  # OH

Atoms

      1       1    1  -1.112800  1.344606e+01  1.860228e+01  1.332557e+01  # Ow water
      2       1    2   0.556400  1.270612e+01  1.817520e+01  1.289392e+01  # Hw water
      3       1    2   0.556400  1.367774e+01  1.801313e+01  1.404352e+01  # Hw water
      4       2    1  -1.112800  3.089013e+01  3.746911e+00  5.613357e+00  # Ow water
      5       2    2   0.556400  3.176157e+01  3.574581e+00  5.256813e+00  # Hw water
      6       2    2   0.556400  3.032924e+01  3.837436e+00  4.843008e+00  # Hw water
      7       3    1  -1.112800  1.667592e+01  9.677211e+00  5.335791e+00  # Ow water
      8       3    2   0.556400  1.609824e+01  9.285007e+00  5.990536e+00  # Hw water
      9       3    2   0.556400  1.734241e+01  1.013558e+01  5.847560e+00  # Hw water
     10       4    1  -1.112800  1.927090e+01  9.774889e+00  1.024006e+01  # Ow water
     11       4    2   0.556400  1.958596e+01  9.467176e+00  1.108994e+01  # Hw water
     12       4    2   0.556400  2.005898e+01  9.837945e+00  9.700447e+00  # Hw water
     13       5    1  -1.112800  7.397359e+00  2.930867e+01  1.647443e+01  # Ow water
     14       5    2   0.556400  8.045963e+00  2.961444e+01  1.584037e+01  # Hw water
     15       5    2   0.556400  6.666181e+00  2.899943e+01  1.593966e+01  # Hw water
     16       6    1  -1.112800  6.547367e+00  2.750189e+01  1.606354e+00  # Ow water
     17       6    2   0.556400  6.725059e+00  2.763684e+01  2.537183e+00  # Hw water
     18       6    2   0.556400  6.531414e+00  2.655069e+01  1.500513e+00  # Hw water
     19       7    1  -1.112800  1.789815e+01  1.540973e+00  1.374857e+01  # Ow water
     20       7    2   0.556400  1.860301e+01  1.500559e+00  1.439491e+01  # Hw water
     21       7    2   0.556400  1.834530e+01  1.502368e+00  1.290311e+01  # Hw water
     22       8    1  -1.112800  1.322994e+01  2.131845e+01  1.567800e+01  # Ow water
     23       8    2   0.556400  1.376497e+01  2.172474e+01  1.635983e+01  # Hw water
     24       8    2   0.556400  1.252526e+01  2.088028e+01  1.615515e+01  # Hw water
     25       9    1  -1.112800  1.599388e+01  3.815049e+00  3.756560e+00  # Ow water
     26       9    2   0.556400  1.642791e+01  4.648597e+00  3.938350e+00  # Hw water
     27       9    2   0.556400  1.506132e+01  4.001290e+00  3.865471e+00  # Hw water
     28      10    1  -1.112800  2.766735e+01  2.260161e+01  2.493627e+00  # Ow water
     29      10    2   0.556400  2.767324e+01  2.168680e+01  2.775262e+00  # Hw water
     30      10    2   0.556400  2.825621e+01  2.262429e+01  1.739335e+00  # Hw water
     31      11    1  -1.112800  2.860732e+01  1.520131e+00  2.295947e+01  # Ow water
     32      11    2   0.556400  2.952313e+01  1.577361e+00  2.268700e+01  # Hw water
     33      11    2   0.556400  2.811375e+01  1.500994e+00  2.213956e+01  # Hw water
     34      12    1  -1.112800  2.427723e+01  2.757880e+01  1.431971e+01  # Ow water
     35      12    2   0.556400  2.426099e+01  2.684971e+01  1.493970e+01  # Hw water
     36      12    2   0.556400  2.519871e+01  2.766589e+01  1.407574e+01  # Hw water
     37      13    1  -1.112800  8.427528e+00  3.010147e+01  2.653050e+01  # Ow water
     38      13    2   0.556400  8.795012e+00  3.083467e+01  2.603694e+01  # Hw water
     39      13    2   0.556400  8.197338e+00  2.945459e+01  2.586358e+01  # Hw water
     40      14    1  -1.112800  4.404596e+00  2.051037e+01  2.395772e+00  # Ow water
     41      14    2   0.556400  4.078664e+00  1.977674e+01  2.917101e+00  # Hw water
     42      14    2   0.556400  4.135424e+00  2.030660e+01  1.500088e+00  # Hw water
     43      15    1  -1.112800  1.109915e+01  8.631784e+00  1.500992e+00  # Ow water
     44      15    2   0.556400  1.027439e+01  9.043346e+00  1.759088e+00  # Hw water
     45      15    2   0.556400  1.175794e+01  9.042835e+00  2.060687e+00  # Hw water
     46      16    1  -1.112800  2.800230e+01  1.793909e+01  3.111351e+00  # Ow water
     47      16    2   0.556400  2.882593e+01  1.750907e+01  2.881261e+00  # Hw water
     48      16    2   0.556400  2.776270e+01  1.756153e+01  3.957678e+00  # Hw water
     49      17    1  -1.112800  1.499976e+00  2.230836e+00  2.080284e+00  # Ow water
     50      17    2   0.556400  1.755554e+00  1.500378e+00  1.516956e+00  # Hw water
     51      17    2   0.556400  1.499960e+00  2.992455e+00  1.500486e+00  # Hw water
     52      18    1  -1.112800  2.782876e+00  1.500200e+00  1.030557e+01  # Ow water
     53      18    2   0.556400  3.658724e+00  1.804012e+00  1.006721e+01  # Hw water
     54      18    2   0.556400  2.295883e+00  1.501479e+00  9.481520e+00  # Hw water
     55      19    1  -1.112800  3.141980e+01  3.087284e+01  2.632380e+01  # Ow water
     56      19    2   0.556400  3.176071e+01  3.046350e+01  2.711907e+01  # Hw water
     57      19    2   0.556400  3.176101e+01  3.033298e+01  2.561080e+01  # Hw water
     58      20    1  -1.112800  7.502701e+00  4.333130e+00  2.114079e+01  # Ow water
     59      20    2   0.556400  7.573042e+00  5.111615e+00  2.058830e+01  # Hw water
     60      20    2   0.556400  7.424878e+00  3.606413e+00  2.052268e+01  # Hw water
     61      21    1  -1.112800  2.199993e+01  2.050248e+01  1.501811e+00  # Ow water
     62      21    2   0.556400  2.118098e+01  2.000736e+01  1.521926e+00  # Hw water
     63      21    2   0.556400  2.208385e+01  2.086350e+01  2.384336e+00  # Hw water
     64      22    1  -1.112800  1.967862e+01  4.846336e+00  1.755868e+01  # Ow water
     65      22    2   0.556400  1.995289e+01  4.987975e+00  1.665262e+01  # Hw water
     66      22    2   0.556400  2.016676e+01  4.072135e+00  1.783896e+01  # Hw water
     67      23    1  -1.112800  3.002803e+00  1.515410e+00  3.115942e+01  # Ow water
     68      23    2   0.556400  3.747634e+00  1.522683e+00  3.176059e+01  # Hw water
     69      23    2   0.556400  2.234215e+00  1.500167e+00  3.172975e+01  # Hw water
     70      24    1  -1.112800  1.954829e+01  2.524235e+01  1.571914e+01  # Ow water
     71      24    2   0.556400  1.876817e+01  2.483582e+01  1.609646e+01  # Hw water
     72      24    2   0.556400  1.958960e+01  2.610712e+01  1.612745e+01  # Hw water
     73      25    1  -1.112800  1.568200e+01  2.690725e+01  3.963440e+00  # Ow water
     74      25    2   0.556400  1.500273e+01  2.751474e+01  3.670552e+00  # Hw water
     75      25    2   0.556400  1.604317e+01  2.654327e+01  3.155171e+00  # Hw water
     76      26    1  -1.112800  2.679570e+01  2.900579e+01  2.772959e+01  # Ow water
     77      26    2   0.556400  2.622027e+01  2.824402e+01  2.766007e+01  # Hw water
     78      26    2   0.556400  2.714896e+01  2.912100e+01  2.684745e+01  # Hw water
     79      27    1  -1.112800  2.786717e+00  1.440582e+01  1.499981e+00  # Ow water
     80      27    2   0.556400  1.875066e+00  1.466736e+01  1.629273e+00  # Hw water
     81      27    2   0.556400  3.169165e+00  1.442694e+01  2.377202e+00  # Hw water
     82      28    1  -1.112800  3.175888e+01  1.727906e+01  1.721975e+01  # Ow water
     83      28    2   0.556400  3.174486e+01  1.821984e+01  1.739574e+01  # Hw water
     84      28    2   0.556400  3.173844e+01  1.687251e+01  1.808608e+01  # Hw water
     85      29    1  -1.112800  3.170319e+01  2.206239e+01  2.449417e+00  # Ow water
     86      29    2   0.556400  3.076570e+01  2.209949e+01  2.639060e+00  # Hw water
     87      29    2   0.556400  3.175167e+01  2.194555e+01  1.500614e+00  # Hw water
     88      30    1  -1.112800  7.114365e+00  2.174585e+00  2.847869e+01  # Ow water
     89      30    2   0.556400  7.487941e+00  2.901898e+00  2.897637e+01  # Hw water
     90      30    2   0.556400  6.939957e+00  1.499547e+00  2.913453e+01  # Hw water
     91      31    1  -1.112800  2.197972e+01  5.882675e+00  2.368698e+01  # Ow water
     92      31    2   0.556400  2.157750e+01  5.188913e+00  2.420961e+01  # Hw water
     93      31    2   0.556400  2.125637e+01  6.251000e+00  2.317969e+01  # Hw water
     94      32    1  -1.112800  2.018716e+01  2.514864e+01  7.445016e+00  # Ow water
     95      32    2   0.556400  1.930345e+01  2.529322e+01  7.783240e+00  # Hw water
     96      32    2   0.556400  2.063492e+01  2.466796e+01  8.141205e+00  # Hw water
     97      33    1  -1.112800  1.009701e+01  1.625974e+01  8.726968e+00  # Ow water
     98      33    2   0.556400  9.940181e+00  1.613863e+01  9.663433e+00  # Hw water
     99      33    2   0.556400  1.034209e+01  1.539033e+01  8.410275e+00  # Hw water
    100      34    1  -1.112800  2.440404e+01  1.620205e+01  8.029170e+00  # Ow water
    101      34    2   0.556400  2.367947e+01  1.557829e+01  8.075653e+00  # Hw water
    102      34    2   0.556400  2.513108e+01  1.569850e+01  7.663022e+00  # Hw water
    103      35    1  -1.112800  2.714810e+01  1.599919e+01  1.503887e+00  # Ow water
    104      35    2   0.556400  2.642869e+01  1.663059e+01  1.500063e+00  # Hw water
    105      35    2   0.556400  2.671725e+01  1.514444e+01  1.500125e+00  # Hw water
    106      36    1  -1.112800  4.271565e+00  1.460524e+01  9.758549e+00  # Ow water
    107      36    2   0.556400  4.892958e+00  1.525125e+01  9.422736e+00  # Hw water
    108      36    2   0.556400  3.723903e+00  1.438477e+01  9.005097e+00  # Hw water
    109      37    1  -1.112800  1.746213e+01  1.745307e+01  1.939185e+00  # Ow water
    110      37    2   0.556400  1.704451e+01  1.819559e+01  1.502731e+00  # Hw water
    111      37    2   0.556400  1.710029e+01  1.668272e+01  1.501178e+00  # Hw water
    112      38    1  -1.112800  4.940437e+00  2.743536e+01  3.132724e+01  # Ow water
    113      38    2   0.556400  5.398037e+00  2.815575e+01  3.176067e+01  # Hw water
    114      38    2   0.556400  4.027120e+00  2.771936e+01  3.128946e+01  # Hw water
    115      39    1  -1.112800  1.131382e+01  2.344436e+01  7.359707e+00  # Ow water
    116      39    2   0.556400  1.155732e+01  2.426591e+01  7.786325e+00  # Hw water
    117      39    2   0.556400  1.071830e+01  2.302038e+01  7.977621e+00  # Hw water
    118      40    1  -1.112800  7.205182e+00  1.757931e+01  1.881604e+01  # Ow water
    119      40    2   0.556400  7.593721e+00  1.674159e+01  1.906803e+01  # Hw water
    120      40    2   0.556400  7.087429e+00  1.751385e+01  1.786837e+01  # Hw water
    121      41    1  -1.112800  3.173592e+01  2.977859e+01  3.125876e+01  # Ow water
    122      41    2   0.556400  3.113237e+01  2.923183e+01  3.176175e+01  # Hw water
    123      41    2   0.556400  3.176171e+01  3.060845e+01  3.173509e+01  # Hw water
    124      42    1  -1.112800  1.638613e+01  2.240502e+01  1.956057e+01  # Ow water
    125      42    2   0.556400  1.695674e+01  2.246626e+01  1.879449e+01  # Hw water
    126      42    2   0.556400  1.642579e+01  2.327424e+01  1.995945e+01  # Hw water
    127      43    1  -1.112800  1.177082e+01  1.844411e+00  8.706253e+00  # Ow water
    128      43    2   0.556400  1.226248e+01  1.501077e+00  9.452324e+00  # Hw water
    129      43    2   0.556400  1.226568e+01  2.614591e+00  8.426669e+00  # Hw water
    130      44    1  -1.112800  3.168454e+01  1.766836e+01  2.612473e+01  # Ow water
    131      44    2   0.556400  3.169338e+01  1.681161e+01  2.655149e+01  # Hw water
    132      44    2   0.556400  3.176046e+01  1.747213e+01  2.519094e+01  # Hw water
    133      45    1  -1.112800  1.706421e+01  1.451586e+01  1.304383e+01  # Ow water
    134      45    2   0.556400  1.709881e+01  1.546592e+01  1.315527e+01  # Hw water
    135      45    2   0.556400  1.700906e+01  1.417151e+01  1.393524e+01  # Hw water
    136      46    1  -1.112800  1.359572e+01  1.820738e+01  1.536147e+00  # Ow water
    137      46    2   0.556400  1.289958e+01  1.886341e+01  1.501144e+00  # Hw water
    138      46    2   0.556400  1.440622e+01  1.871540e+01  1.500976e+00  # Hw water
    139      47    1  -1.112800  1.824006e+01  2.612865e+01  4.731200e+00  # Ow water
    140      47    2   0.556400  1.879846e+01  2.543825e+01  5.088643e+00  # Hw water
    141      47    2   0.556400  1.797071e+01  2.663894e+01  5.494930e+00  # Hw water
    142      48    1  -1.112800  1.563794e+01  1.641795e+00  8.241112e+00  # Ow water
    143      48    2   0.556400  1.606043e+01  1.501502e+00  7.393736e+00  # Hw water
    144      48    2   0.556400  1.470649e+01  1.501397e+00  8.071041e+00  # Hw water
    145      49    1  -1.112800  3.286214e+00  1.768777e+01  1.501212e+00  # Ow water
    146      49    2   0.556400  2.386700e+00  1.736050e+01  1.501060e+00  # Hw water
    147      49    2   0.556400  3.828555e+00  1.689904e+01  1.501618e+00  # Hw water
    148      50    1  -1.112800  1.510835e+01  3.176152e+01  1.893166e+01  # Ow water
    149      50    2   0.556400  1.582589e+01  3.154125e+01  1.833765e+01  # Hw water
    150      50    2   0.556400  1.542025e+01  3.149131e+01  1.979533e+01  # Hw water
    151      51    1  -1.112800  3.141841e+01  1.774568e+01  3.176140e+01  # Ow water
    152      51    2   0.556400  3.176192e+01  1.687572e+01  3.155793e+01  # Hw water
    153      51    2   0.556400  3.176170e+01  1.830773e+01  3.106679e+01  # Hw water
    154      52    1  -1.112800  1.746896e+00  2.302675e+01  2.267355e+01  # Ow water
    155      52    2   0.556400  1.500839e+00  2.373354e+01  2.207678e+01  # Hw water
    156      52    2   0.556400  1.747277e+00  2.224069e+01  2.212734e+01  # Hw water
    157      53    1  -1.112800  2.858766e+01  3.136210e+01  1.444848e+01  # Ow water
    158      53    2   0.556400  2.867049e+01  3.042222e+01  1.460966e+01  # Hw water
    159      53    2   0.556400  2.925730e+01  3.176082e+01  1.500422e+01  # Hw water
    160      54    1  -1.112800  2.586898e+01  3.028766e+01  2.231303e+01  # Ow water
    161      54    2   0.556400  2.609517e+01  3.042722e+01  2.139347e+01  # Hw water
    162      54    2   0.556400  2.497062e+01  2.995793e+01  2.229183e+01  # Hw water
    163      55    1  -1.112800  8.362327e+00  1.207555e+01  6.127528e+00  # Ow water
    164      55    2   0.556400  8.048284e+00  1.253566e+01  5.349125e+00  # Hw water
    165      55    2   0.556400  8.169648e+00  1.115385e+01  5.955573e+00  # Hw water
    166      56    1  -1.112800  4.079219e+00  1.456429e+01  2.641590e+01  # Ow water
    167      56    2   0.556400  3.458536e+00  1.404083e+01  2.692282e+01  # Hw water
    168      56    2   0.556400  4.650469e+00  1.496205e+01  2.707293e+01  # Hw water
    169      57    1  -1.112800  6.003828e+00  2.183659e+01  2.581349e+01  # Ow water
    170      57    2   0.556400  6.481820e+00  2.256947e+01  2.620162e+01  # Hw water
    171      57    2   0.556400  6.675174e+00  2.117630e+01  2.564164e+01  # Hw water
    172      58    1  -1.112800  2.269565e+01  1.035407e+01  1.142961e+01  # Ow water
    173      58    2   0.556400  2.238207e+01  9.501688e+00  1.112738e+01  # Hw water
    174      58    2   0.556400  2.190070e+01  1.087378e+01  1.154876e+01  # Hw water
    175      59    1  -1.112800  3.175529e+01  2.252194e+01  1.231997e+01  # Ow water
    176      59    2   0.556400  3.175895e+01  2.257870e+01  1.136447e+01  # Hw water
    177      59    2   0.556400  3.096243e+01  2.202763e+01  1.252799e+01  # Hw water
    178      60    1  -1.112800  4.653549e+00  2.232593e+01  1.791244e+01  # Ow water
    179      60    2   0.556400  5.052821e+00  2.263334e+01  1.872626e+01  # Hw water
    180      60    2   0.556400  4.079235e+00  2.160940e+01  1.818259e+01  # Hw water
    181      61    1  -1.112800  7.223087e+00  2.756853e+01  1.943506e+01  # Ow water
    182      61    2   0.556400  7.271419e+00  2.735714e+01  1.850274e+01  # Hw water
    183      61    2   0.556400  6.746193e+00  2.683488e+01  1.982307e+01  # Hw water
    184      62    1  -1.112800  1.758921e+01  1.581329e+01  9.731417e+00  # Ow water
    185      62    2   0.556400  1.773524e+01  1.524616e+01  1.048856e+01  # Hw water
    186      62    2   0.556400  1.761426e+01  1.522122e+01  8.979713e+00  # Hw water
    187      63    1  -1.112800  6.586519e+00  3.171456e+01  9.298084e+00  # Ow water
    188      63    2   0.556400  5.812751e+00  3.176160e+01  8.736569e+00  # Hw water
    189      63    2   0.556400  7.325987e+00  3.175819e+01  8.691856e+00  # Hw water
    190      64    1  -1.112800  1.716445e+01  2.695310e+01  2.980056e+01  # Ow water
    191      64    2   0.556400  1.804060e+01  2.689098e+01  2.942014e+01  # Hw water
    192      64    2   0.556400  1.709147e+01  2.786328e+01  3.008773e+01  # Hw water
    193      65    1  -1.112800  2.931498e+01  2.346147e+00  1.137890e+01  # Ow water
    194      65    2   0.556400  2.917332e+01  2.942250e+00  1.211431e+01  # Hw water
    195      65    2   0.556400  2.950141e+01  1.500896e+00  1.178758e+01  # Hw water
    196      66    1  -1.112800  2.757126e+01  2.327453e+01  1.267985e+01  # Ow water
    197      66    2   0.556400  2.679681e+01  2.285962e+01  1.305972e+01  # Hw water
    198      66    2   0.556400  2.738407e+01  2.421247e+01  1.271797e+01  # Hw water
    199      67    1  -1.112800  1.468331e+01  2.256821e+01  2.898186e+01  # Ow water
    200      67    2   0.556400  1.404887e+01  2.274292e+01  2.967698e+01  # Hw water
    201      67    2   0.556400  1.552415e+01  2.250457e+01  2.943482e+01  # Hw water
    202      68    1  -1.112800  1.030189e+01  1.500804e+00  1.243994e+01  # Ow water
    203      68    2   0.556400  9.386980e+00  1.778107e+00  1.248760e+01  # Hw water
    204      68    2   0.556400  1.050646e+01  1.508071e+00  1.150488e+01  # Hw water
    205      69    1  -1.112800  2.703226e+01  3.175953e+01  2.739018e+01  # Ow water
    206      69    2   0.556400  2.758071e+01  3.176156e+01  2.817467e+01  # Hw water
    207      69    2   0.556400  2.765418e+01  3.176156e+01  2.666256e+01  # Hw water
    208      70    1  -1.112800  3.176155e+01  2.128034e+01  2.540138e+01  # Ow water
    209      70    2   0.556400  3.169608e+01  2.132746e+01  2.444759e+01  # Hw water
    210      70    2   0.556400  3.173410e+01  2.034392e+01  2.559785e+01  # Hw water
    211      71    1  -1.112800  1.732741e+01  4.100504e+00  6.561633e+00  # Ow water
    212      71    2   0.556400  1.653772e+01  3.668767e+00  6.235701e+00  # Hw water
    213      71    2   0.556400  1.756425e+01  3.606717e+00  7.346686e+00  # Hw water
    214      72    1  -1.112800  3.167423e+01  1.552984e+01  2.208634e+01  # Ow water
    215      72    2   0.556400  3.175848e+01  1.639889e+01  2.247862e+01  # Hw water
    216      72    2   0.556400  3.175725e+01  1.568237e+01  2.114502e+01  # Hw water
    217      73    1  -1.112800  2.972556e+01  3.175635e+01  8.574453e+00  # Ow water
    218      73    2   0.556400  2.953969e+01  3.176118e+01  7.635486e+00  # Hw water
    219      73    2   0.556400  2.886320e+01  3.176174e+01  8.989834e+00  # Hw water
    220      74    1  -1.112800  2.231044e+01  2.549812e+01  1.660239e+01  # Ow water
    221      74    2   0.556400  2.183064e+01  2.494461e+01  1.721855e+01  # Hw water
    222      74    2   0.556400  2.282721e+01  2.608257e+01  1.715699e+01  # Hw water
    223      75    1  -1.112800  3.121129e+01  2.794674e+01  3.998526e+00  # Ow water
    224      75    2   0.556400  3.176124e+01  2.748381e+01  3.366483e+00  # Hw water
    225      75    2   0.556400  3.176138e+01  2.803356e+01  4.777039e+00  # Hw water
    226      76    1  -1.112800  1.849131e+00  1.500336e+00  6.049566e+00  # Ow water
    227      76    2   0.556400  1.500471e+00  1.803831e+00  6.887752e+00  # Hw water
    228      76    2   0.556400  1.500734e+00  2.118212e+00  5.406854e+00  # Hw water
    229      77    1  -1.112800  2.081294e+00  2.293451e+01  3.176163e+01  # Ow water
    230      77    2   0.556400  1.500084e+00  2.217977e+01  3.166782e+01  # Hw water
    231      77    2   0.556400  1.502139e+00  2.369347e+01  3.169248e+01  # Hw water
    232      78    1  -1.112800  1.295920e+01  1.580635e+01  2.420340e+01  # Ow water
    233      78    2   0.556400  1.238068e+01  1.583386e+01  2.344131e+01  # Hw water
    234      78    2   0.556400  1.380695e+01  1.553486e+01  2.385149e+01  # Hw water
    235      79    1  -1.112800  4.157832e+00  1.335259e+01  1.531951e+01  # Ow water
    236      79    2   0.556400  3.631557e+00  1.290448e+01  1.465734e+01  # Hw water
    237      79    2   0.556400  3.648264e+00  1.327223e+01  1.612580e+01  # Hw water
    238      80    1  -1.112800  3.052610e+00  2.360226e+01  3.193384e+00  # Ow water
    239      80    2   0.556400  3.212927e+00  2.297176e+01  2.491245e+00  # Hw water
    240      80    2   0.556400  2.213560e+00  2.333522e+01  3.568769e+00  # Hw water
    241      81    1  -1.112800  2.596708e+01  3.075744e+01  1.407616e+01  # Ow water
    242      81    2   0.556400  2.570551e+01  3.024626e+01  1.484199e+01  # Hw water
    243      81    2   0.556400  2.628981e+01  3.010712e+01  1.345234e+01  # Hw water
    244      82    1  -1.112800  7.182098e+00  2.085829e+00  4.058311e+00  # Ow water
    245      82    2   0.556400  6.600741e+00  1.500462e+00  3.572928e+00  # Hw water
    246      82    2   0.556400  7.790601e+00  1.500267e+00  4.508943e+00  # Hw water
    247      83    1  -1.112800  1.167537e+01  2.408635e+01  2.899830e+01  # Ow water
    248      83    2   0.556400  1.098196e+01  2.401014e+01  2.834286e+01  # Hw water
    249      83    2   0.556400  1.138058e+01  2.353687e+01  2.972452e+01  # Hw water
    250      84    1  -1.112800  6.709495e+00  2.748284e+01  2.840465e+01  # Ow water
    251      84    2   0.556400  7.370097e+00  2.812494e+01  2.814478e+01  # Hw water
    252      84    2   0.556400  6.638119e+00  2.758271e+01  2.935394e+01  # Hw water
    253      85    1  -1.112800  2.927637e+01  3.174627e+01  1.712143e+00  # Ow water
    254      85    2   0.556400  2.950035e+01  3.176108e+01  2.642648e+00  # Hw water
    255      85    2   0.556400  2.919209e+01  3.081661e+01  1.500350e+00  # Hw water
    256      86    1  -1.112800  2.111698e+01  1.270242e+01  1.503248e+00  # Ow water
    257      86    2   0.556400  2.063996e+01  1.187256e+01  1.500310e+00  # Hw water
    258      86    2   0.556400  2.043323e+01  1.337228e+01  1.500571e+00  # Hw water
    259      87    1  -1.112800  2.197187e+01  1.500587e+00  1.288531e+01  # Ow water
    260      87    2   0.556400  2.252687e+01  1.583182e+00  1.366079e+01  # Hw water
    261      87    2   0.556400  2.107824e+01  1.503711e+00  1.322831e+01  # Hw water
    262      88    1  -1.112800  1.591608e+01  3.168949e+01  1.115408e+01  # Ow water
    263      88    2   0.556400  1.516215e+01  3.176063e+01  1.056862e+01  # Hw water
    264      88    2   0.556400  1.554431e+01  3.175773e+01  1.203349e+01  # Hw water
    265      89    1  -1.112800  1.984649e+01  3.175911e+01  1.080138e+01  # Ow water
    266      89    2   0.556400  2.055478e+01  3.174368e+01  1.144505e+01  # Hw water
    267      89    2   0.556400  1.904562e+01  3.174506e+01  1.132544e+01  # Hw water
    268      90    1  -1.112800  2.363245e+01  1.299002e+01  6.760981e+00  # Ow water
    269      90    2   0.556400  2.313887e+01  1.247467e+01  6.122998e+00  # Hw water
    270      90    2   0.556400  2.420364e+01  1.354547e+01  6.230465e+00  # Hw water
    271      91    1  -1.112800  3.176122e+01  1.002750e+01  1.693029e+01  # Ow water
    272      91    2   0.556400  3.175390e+01  9.153797e+00  1.653938e+01  # Hw water
    273      91    2   0.556400  3.151875e+01  1.061331e+01  1.621316e+01  # Hw water
    274      92    1  -1.112800  3.176061e+01  1.494126e+01  2.047489e+00  # Ow water
    275      92    2   0.556400  3.103613e+01  1.524436e+01  1.500240e+00  # Hw water
    276      92    2   0.556400  3.176157e+01  1.553756e+01  2.796257e+00  # Hw water
    277      93    1  -1.112800  6.028678e+00  1.905730e+01  2.401681e+01  # Ow water
    278      93    2   0.556400  6.240690e+00  1.941119e+01  2.315308e+01  # Hw water
    279      93    2   0.556400  6.114510e+00  1.810936e+01  2.391545e+01  # Hw water
    280      94    1  -1.112800  1.500484e+00  4.016941e+00  9.408731e+00  # Ow water
    281      94    2   0.556400  2.425591e+00  4.120058e+00  9.185635e+00  # Hw water
    282      94    2   0.556400  1.500144e+00  3.817879e+00  1.034500e+01  # Hw water
    283      95    1  -1.112800  1.500102e+00  1.715140e+01  2.061634e+01  # Ow water
    284      95    2   0.556400  1.502428e+00  1.619550e+01  2.066616e+01  # Hw water
    285      95    2   0.556400  2.419119e+00  1.739922e+01  2.071744e+01  # Hw water
    286      96    1  -1.112800  2.349369e+01  3.176099e+01  1.951149e+01  # Ow water
    287      96    2   0.556400  2.312582e+01  3.101260e+01  1.904158e+01  # Hw water
    288      96    2   0.556400  2.381890e+01  3.139237e+01  2.033282e+01  # Hw water
    289      97    1  -1.112800  6.051096e+00  2.258985e+01  3.049104e+01  # Ow water
    290      97    2   0.556400  5.978942e+00  2.219550e+01  3.136024e+01  # Hw water
    291      97    2   0.556400  5.160986e+00  2.256176e+01  3.014012e+01  # Hw water
    292      98    1  -1.112800  2.217667e+01  2.181969e+01  8.126620e+00  # Ow water
    293      98    2   0.556400  2.123481e+01  2.198391e+01  8.080274e+00  # Hw water
    294      98    2   0.556400  2.230541e+01  2.139914e+01  8.976792e+00  # Hw water
    295      99    1  -1.112800  7.521422e+00  2.214364e+01  1.982836e+01  # Ow water
    296      99    2   0.556400  8.349856e+00  2.261990e+01  1.977268e+01  # Hw water
    297      99    2   0.556400  7.105013e+00  2.247847e+01  2.062254e+01  # Hw water
    298     100    1  -1.112800  1.012263e+01  2.283206e+01  3.740221e+00  # Ow water
    299     100    2   0.556400  1.088409e+01  2.288732e+01  4.317594e+00  # Hw water
    300     100    2   0.556400  9.897001e+00  2.190190e+01  3.728953e+00  # Hw water
    301     101    1  -1.112800  1.274385e+01  1.518396e+00  2.784239e+01  # Ow water
    302     101    2   0.556400  1.202242e+01  1.501736e+00  2.721351e+01  # Hw water
    303     101    2   0.556400  1.231618e+01  1.504991e+00  2.869863e+01  # Hw water
    304     102    1  -1.112800  1.121912e+01  2.967524e+01  2.392182e+01  # Ow water
    305     102    2   0.556400  1.128322e+01  3.062528e+01  2.401950e+01  # Hw water
    306     102    2   0.556400  1.076716e+01  2.938257e+01  2.471321e+01  # Hw water
    307     103    1  -1.112800  8.308245e+00  1.624366e+01  1.429213e+01  # Ow water
    308     103    2   0.556400  8.526092e+00  1.682568e+01  1.502016e+01  # Hw water
    309     103    2   0.556400  8.912716e+00  1.649586e+01  1.359411e+01  # Hw water
    310     104    1  -1.112800  2.725806e+01  1.882810e+00  9.551259e+00  # Ow water
    311     104    2   0.556400  2.710463e+01  1.502648e+00  1.041623e+01  # Hw water
    312     104    2   0.556400  2.657712e+01  1.501271e+00  8.997205e+00  # Hw water
    313     105    1  -1.112800  1.879462e+01  3.680788e+00  2.323834e+01  # Ow water
    314     105    2   0.556400  1.940674e+01  3.603073e+00  2.397011e+01  # Hw water
    315     105    2   0.556400  1.883084e+01  4.605109e+00  2.299228e+01  # Hw water
    316     106    1  -1.112800  2.927599e+01  2.957787e+00  1.499831e+00  # Ow water
    317     106    2   0.556400  2.865115e+01  2.239897e+00  1.602015e+00  # Hw water
    318     106    2   0.556400  2.907401e+01  3.555979e+00  2.219276e+00  # Hw water
    319     107    1  -1.112800  2.209218e+01  1.443356e+01  1.228866e+01  # Ow water
    320     107    2   0.556400  2.248264e+01  1.492129e+01  1.156348e+01  # Hw water
    321     107    2   0.556400  2.182800e+01  1.359883e+01  1.190179e+01  # Hw water
    322     108    1  -1.112800  2.254958e+01  2.372730e+01  1.403319e+01  # Ow water
    323     108    2   0.556400  2.188926e+01  2.356517e+01  1.470693e+01  # Hw water
    324     108    2   0.556400  2.292224e+01  2.286488e+01  1.384993e+01  # Hw water
    325     109    1  -1.112800  2.265615e+01  2.679632e+01  1.118268e+01  # Ow water
    326     109    2   0.556400  2.188252e+01  2.632195e+01  1.148714e+01  # Hw water
    327     109    2   0.556400  2.302669e+01  2.623772e+01  1.049937e+01  # Hw water
    328     110    1  -1.112800  2.252558e+01  1.527004e+01  1.527437e+01  # Ow water
    329     110    2   0.556400  2.170687e+01  1.548569e+01  1.482779e+01  # Hw water
    330     110    2   0.556400  2.275317e+01  1.439847e+01  1.495065e+01  # Hw water
    331     111    1  -1.112800  1.188071e+01  1.896224e+01  2.852591e+01  # Ow water
    332     111    2   0.556400  1.209229e+01  1.882322e+01  2.944902e+01  # Hw water
    333     111    2   0.556400  1.227756e+01  1.821761e+01  2.807396e+01  # Hw water
    334     112    1  -1.112800  2.329881e+01  2.953497e+01  1.598361e+01  # Ow water
    335     112    2   0.556400  2.328780e+01  2.880888e+01  1.660723e+01  # Hw water
    336     112    2   0.556400  2.237510e+01  2.971662e+01  1.581043e+01  # Hw water
    337     113    1  -1.112800  8.650029e+00  2.396350e+01  1.523273e+01  # Ow water
    338     113    2   0.556400  9.513306e+00  2.434189e+01  1.539946e+01  # Hw water
    339     113    2   0.556400  8.682281e+00  2.310073e+01  1.564601e+01  # Hw water
    340     114    1  -1.112800  3.152698e+01  1.280941e+01  1.386215e+01  # Ow water
    341     114    2   0.556400  3.175991e+01  1.188574e+01  1.376834e+01  # Hw water
    342     114    2   0.556400  3.175959e+01  1.320222e+01  1.302083e+01  # Hw water
    343     115    1  -1.112800  1.293179e+01  2.394833e+01  1.497456e+01  # Ow water
    344     115    2   0.556400  1.225254e+01  2.444842e+01  1.542706e+01  # Hw water
    345     115    2   0.556400  1.367685e+01  2.454709e+01  1.492354e+01  # Hw water