LAMMPS (22 Aug 2018)
Reading data file ...
  orthogonal box = (0 0 0) to (33.2616 33.2616 33.2616)
  4 by 4 by 8 MPI processor grid
  reading atoms ...
  3378 atoms
  scanning bonds ...
  4 = max bonds/atom
  scanning angles ...
  6 = max angles/atom
  reading bonds ...
  2270 bonds
  reading angles ...
  1324 angles
Finding 1-2 1-3 1-4 neighbors ...
  special bond factors lj:   0          0          0         
  special bond factors coul: 0          0          0         
  4 = max # of 1-2 neighbors
  3 = max # of 1-3 neighbors
  3 = max # of 1-4 neighbors
  4 = max # of special neighbors
Setting atom values ...
  1000 settings made for charge
Setting atom values ...
  2000 settings made for charge
Setting atom values ...
  54 settings made for charge
Setting atom values ...
  54 settings made for charge
Setting atom values ...
  54 settings made for charge
Setting atom values ...
  216 settings made for charge
1000 atoms in group wat
54 atoms in group Na
54 atoms in group B
216 atoms in group OH
1108 rigid bodies with 3378 atoms
  1.49001 = max distance from body owner to body atom
PPPM initialization ...
  extracting TIP4P info from pair style
  using 12-bit tables for long-range coulomb (../kspace.cpp:321)
  G vector (1/distance) = 0.312355
  grid = 32 32 32
  stencil order = 5
  estimated absolute RMS force accuracy = 0.00370836
  estimated relative force accuracy = 1.11676e-05
  using double precision FFTs
  3d grid and FFT values/proc = 2475 256
Neighbor list info ...
  update every 1 steps, delay 0 steps, check yes
  max neighbors/atom: 2000, page size: 100000
  master list distance cutoff = 12.3092
  ghost atom cutoff = 12.3092
  binsize = 6.1546, bins = 6 6 6
  1 neighbor lists, perpetual/occasional/extra = 1 0 0
  (1) pair lj/cut/tip4p/long, perpetual
      attributes: half, newton on
      pair build: half/bin/newton
      stencil: half/bin/3d/newton
      bin: standard
Setting up Verlet run ...
  Unit style    : real
  Current step  : 0
  Time step     : 0.001
Per MPI rank memory allocation (min/avg/max) = 13.56 | 13.62 | 13.97 Mbytes
Step Temp E_pair E_mol TotEng Press Volume 
       0    321.80408   -526.44877 0.0082139628    1581.0028   -7819637.6    36798.407 
   10000    929.92396   -5537.5467 0.0082228745    552.38446    9655.2079    37503.531 
Loop time of 11.3764 on 128 procs for 10000 steps with 3378 atoms

Performance: 0.076 ns/day, 316.012 hours/ns, 879.009 timesteps/s
99.4% CPU use with 128 MPI tasks x no OpenMP threads

MPI task timing breakdown:
Section |  min time  |  avg time  |  max time  |%varavg| %total
---------------------------------------------------------------
Pair    | 2.0223     | 2.7889     | 3.6497     |  21.6 | 24.52
Bond    | 0.0071714  | 0.011669   | 0.018515   |   2.1 |  0.10
Kspace  | 3.2281     | 4.0352     | 4.8769     |  17.7 | 35.47
Neigh   | 0.00035245 | 0.0003817  | 0.00040561 |   0.0 |  0.00
Comm    | 0.88081    | 1.0079     | 1.1539     |   6.7 |  8.86
Output  | 9.7863e-05 | 9.9753e-05 | 0.00010249 |   0.0 |  0.00
Modify  | 3.3053     | 3.4015     | 3.4636     |   1.8 | 29.90
Other   |            | 0.1307     |            |       |  1.15

Nlocal:    26.3906 ave 32 max 20 min
Histogram: 4 3 6 15 23 37 13 14 3 10
Nghost:    2809.96 ave 2861 max 2770 min
Histogram: 8 14 19 25 13 17 8 11 10 3
Neighs:    9379.75 ave 12176 max 6882 min
Histogram: 3 10 16 23 21 17 15 16 4 3

Total # of neighbors = 1200608
Ave neighs/atom = 355.42
Ave special neighs/atom = 2.12789
Neighbor list builds = 1
Dangerous builds = 0
PPPM initialization ...
  extracting TIP4P info from pair style
  using 12-bit tables for long-range coulomb (../kspace.cpp:321)
  G vector (1/distance) = 0.311901
  grid = 32 32 32
  stencil order = 5
  estimated absolute RMS force accuracy = 0.00377884
  estimated relative force accuracy = 1.13799e-05
  using double precision FFTs
  3d grid and FFT values/proc = 2475 256
Setting up Verlet run ...
  Unit style    : real
  Current step  : 10000
  Time step     : 0.01
Per MPI rank memory allocation (min/avg/max) = 13.56 | 13.62 | 13.97 Mbytes
Step Temp E_pair E_mol TotEng Press Volume 
   10000    929.92396   -5537.5459 0.0082228745    552.38527    3904.6671    37503.531 
   20000    482.83495   -15362.517 0.0085319548     -12200.5    3344.8513    33972.219 
Loop time of 11.8538 on 128 procs for 10000 steps with 3378 atoms

Performance: 0.729 ns/day, 32.927 hours/ns, 843.608 timesteps/s
99.4% CPU use with 128 MPI tasks x no OpenMP threads

MPI task timing breakdown:
Section |  min time  |  avg time  |  max time  |%varavg| %total
---------------------------------------------------------------
Pair    | 1.8313     | 2.755      | 3.5449     |  22.8 | 23.24
Bond    | 0.0071017  | 0.011668   | 0.017454   |   2.0 |  0.10
Kspace  | 3.6046     | 4.3532     | 5.2632     |  17.7 | 36.72
Neigh   | 0.003468   | 0.003687   | 0.0039212  |   0.2 |  0.03
Comm    | 0.8841     | 1.0072     | 1.1612     |   6.6 |  8.50
Output  | 9.9425e-05 | 0.00010126 | 0.0001042  |   0.0 |  0.00
Modify  | 3.4362     | 3.5429     | 3.6088     |   1.9 | 29.89
Other   |            | 0.1802     |            |       |  1.52

Nlocal:    26.3906 ave 36 max 19 min
Histogram: 3 11 27 10 34 19 10 9 4 1
Nghost:    2973.77 ave 3023 max 2943 min
Histogram: 8 35 32 8 10 3 1 8 11 12
Neighs:    10016.5 ave 13391 max 6415 min
Histogram: 3 8 12 14 24 19 20 17 8 3

Total # of neighbors = 1282109
Ave neighs/atom = 379.547
Ave special neighs/atom = 2.12789
Neighbor list builds = 11
Dangerous builds = 0
PPPM initialization ...
  extracting TIP4P info from pair style
  using 12-bit tables for long-range coulomb (../kspace.cpp:321)
  G vector (1/distance) = 0.314253
  grid = 32 32 32
  stencil order = 5
  estimated absolute RMS force accuracy = 0.00342613
  estimated relative force accuracy = 1.03177e-05
  using double precision FFTs
  3d grid and FFT values/proc = 2475 256
Setting up Verlet run ...
  Unit style    : real
  Current step  : 20000
  Time step     : 0.1
Per MPI rank memory allocation (min/avg/max) = 13.57 | 13.71 | 13.99 Mbytes
Step Temp E_pair E_mol TotEng Press Volume 
   20000    482.83495   -15362.525 0.0085319548   -12200.507    3342.6309    33972.219 
   30000    317.92059       -19007 0.0085896766   -16924.981   -1047.1197    33108.104 
Loop time of 13.2124 on 128 procs for 10000 steps with 3378 atoms

Performance: 6.539 ns/day, 3.670 hours/ns, 756.866 timesteps/s
99.4% CPU use with 128 MPI tasks x no OpenMP threads

MPI task timing breakdown:
Section |  min time  |  avg time  |  max time  |%varavg| %total
---------------------------------------------------------------
Pair    | 2.2808     | 3.2709     | 4.4014     |  22.9 | 24.76
Bond    | 0.0089947  | 0.011637   | 0.017223   |   1.7 |  0.09
Kspace  | 3.4208     | 4.5845     | 5.5308     |  19.1 | 34.70
Neigh   | 0.019314   | 0.020463   | 0.021489   |   0.6 |  0.15
Comm    | 1.0738     | 1.2172     | 1.3643     |   6.3 |  9.21
Output  | 9.655e-05  | 9.8335e-05 | 0.0001008  |   0.0 |  0.00
Modify  | 3.8511     | 3.9556     | 4.0323     |   2.1 | 29.94
Other   |            | 0.152      |            |       |  1.15

Nlocal:    26.3906 ave 34 max 20 min
Histogram: 6 7 22 16 19 25 14 12 2 5
Nghost:    3086.26 ave 3118 max 3055 min
Histogram: 5 4 16 21 21 17 20 15 5 4
Neighs:    10507.9 ave 15093 max 6794 min
Histogram: 2 7 22 18 27 30 9 9 3 1

Total # of neighbors = 1345015
Ave neighs/atom = 398.169
Ave special neighs/atom = 2.12789
Neighbor list builds = 54
Dangerous builds = 0
PPPM initialization ...
  extracting TIP4P info from pair style
  using 12-bit tables for long-range coulomb (../kspace.cpp:321)
  G vector (1/distance) = 0.314862
  grid = 32 32 32
  stencil order = 5
  estimated absolute RMS force accuracy = 0.00333994
  estimated relative force accuracy = 1.00581e-05
  using double precision FFTs
  3d grid and FFT values/proc = 2475 256
Setting up Verlet run ...
  Unit style    : real
  Current step  : 30000
  Time step     : 0.2
Per MPI rank memory allocation (min/avg/max) = 13.57 | 13.82 | 14.1 Mbytes
Step Temp E_pair E_mol TotEng Press Volume 
   30000    317.92059   -19006.999 0.0085896766   -16924.979    568.17685    33108.104 
   40000    324.37282   -19120.905 0.0092085805   -16996.631    -734.0526    33587.357 
Loop time of 12.8615 on 128 procs for 10000 steps with 3378 atoms

Performance: 13.435 ns/day, 1.786 hours/ns, 777.514 timesteps/s
99.4% CPU use with 128 MPI tasks x no OpenMP threads

MPI task timing breakdown:
Section |  min time  |  avg time  |  max time  |%varavg| %total
---------------------------------------------------------------
Pair    | 2.3003     | 3.2283     | 4.1259     |  21.4 | 25.10
Bond    | 0.0089768  | 0.011617   | 0.017721   |   1.6 |  0.09
Kspace  | 3.5821     | 4.452      | 5.3319     |  18.1 | 34.62
Neigh   | 0.040942   | 0.043548   | 0.045674   |   0.8 |  0.34
Comm    | 1.0199     | 1.1646     | 1.3165     |   6.4 |  9.05
Output  | 9.112e-05  | 9.3212e-05 | 0.00010564 |   0.0 |  0.00
Modify  | 3.7183     | 3.822      | 3.9041     |   2.2 | 29.72
Other   |            | 0.1394     |            |       |  1.08

Nlocal:    26.3906 ave 34 max 18 min
Histogram: 6 5 6 23 12 25 28 4 12 7
Nghost:    3046.12 ave 3071 max 3012 min
Histogram: 1 5 9 8 11 30 35 14 11 4
Neighs:    10358.2 ave 14742 max 6137 min
Histogram: 3 7 10 26 16 26 21 11 6 2

Total # of neighbors = 1325856
Ave neighs/atom = 392.497
Ave special neighs/atom = 2.12789
Neighbor list builds = 120
Dangerous builds = 0
PPPM initialization ...
  extracting TIP4P info from pair style
  using 12-bit tables for long-range coulomb (../kspace.cpp:321)
  G vector (1/distance) = 0.314523
  grid = 32 32 32
  stencil order = 5
  estimated absolute RMS force accuracy = 0.00338773
  estimated relative force accuracy = 1.02021e-05
  using double precision FFTs
  3d grid and FFT values/proc = 2475 256
Setting up Verlet run ...
  Unit style    : real
  Current step  : 40000
  Time step     : 0.5
Per MPI rank memory allocation (min/avg/max) = 13.58 | 13.91 | 14.1 Mbytes
Step Temp E_pair E_mol TotEng Press Volume 
   40000    324.37281   -19120.906 0.0092085805   -16996.632    1599.5844    33587.357 
   50000    317.49064   -19117.795 0.0096553335    -17038.59    310.57262    33647.253 
Loop time of 13.0765 on 128 procs for 10000 steps with 3378 atoms

Performance: 33.036 ns/day, 0.726 hours/ns, 764.730 timesteps/s
99.4% CPU use with 128 MPI tasks x no OpenMP threads

MPI task timing breakdown:
Section |  min time  |  avg time  |  max time  |%varavg| %total
---------------------------------------------------------------
Pair    | 2.3222     | 3.2121     | 4.0377     |  19.8 | 24.56
Bond    | 0.0088028  | 0.011614   | 0.016718   |   1.4 |  0.09
Kspace  | 3.6733     | 4.5086     | 5.3689     |  16.5 | 34.48
Neigh   | 0.12568    | 0.13298    | 0.13986    |   1.5 |  1.02
Comm    | 1.0404     | 1.1846     | 1.3412     |   6.5 |  9.06
Output  | 8.5269e-05 | 8.6596e-05 | 8.7784e-05 |   0.0 |  0.00
Modify  | 3.782      | 3.888      | 3.9672     |   2.2 | 29.73
Other   |            | 0.1386     |            |       |  1.06

Nlocal:    26.3906 ave 34 max 18 min
Histogram: 4 5 4 22 13 32 29 4 12 3
Nghost:    3053.46 ave 3083 max 3033 min
Histogram: 3 15 14 32 26 21 8 4 2 3
Neighs:    10337 ave 13724 max 6957 min
Histogram: 5 9 15 12 20 19 24 13 7 4

Total # of neighbors = 1323131
Ave neighs/atom = 391.691
Ave special neighs/atom = 2.12789
Neighbor list builds = 370
Dangerous builds = 0
1108 rigid bodies with 3378 atoms
  1.49008 = max distance from body owner to body atom
PPPM initialization ...
  extracting TIP4P info from pair style
  using 12-bit tables for long-range coulomb (../kspace.cpp:321)
  G vector (1/distance) = 0.314481
  grid = 32 32 32
  stencil order = 5
  estimated absolute RMS force accuracy = 0.00339371
  estimated relative force accuracy = 1.02201e-05
  using double precision FFTs
  3d grid and FFT values/proc = 2475 256
Setting up Verlet run ...
  Unit style    : real
  Current step  : 0
  Time step     : 1
Per MPI rank memory allocation (min/avg/max) = 13.74 | 13.94 | 14.11 Mbytes
Step Temp E_pair E_mol TotEng Press Volume 
       0    317.49064   -19117.796 0.0096553335   -17038.591    806.84014    33647.253 
   10000    321.96429   -19182.455 0.0098576679   -17073.952     235.7313    33436.064 
   20000    319.34298   -19182.596 0.0097244241    -17091.26    264.86672    33446.387 
   30000    327.45412   -19161.903 0.0097321819   -17017.449   -343.34665    33131.871 
   40000    316.74766   -19201.751 0.0097091177   -17127.412   -398.41245     33049.12 
   50000    326.22813    -19166.61   0.01031069   -17030.184   -540.55096    33279.898 
   60000    320.66786   -19152.375 0.0096677988   -17052.363     -538.131      33674.7 
   70000    322.80379   -19109.612 0.0096585595   -16995.612    76.972932    33308.255 
   80000    321.49752   -19200.104 0.0096722281   -17094.659    482.00772    33559.694 
   90000    319.57049   -19223.967 0.0097500315   -17131.142   -1367.5492    33963.269 
  100000    318.94654   -19161.467 0.0097677038   -17072.728   -152.11816    33383.428 
  110000     316.0487   -19175.653 0.0097238551   -17105.891   -423.91215     33399.76 
  120000    326.88346   -19284.663  0.010105039   -17143.945   -192.89774    33419.614 
  130000    320.78476   -19249.155  0.010378461   -17148.376    369.23917    32937.174 
  140000    317.06482   -19171.225  0.010422155   -17094.808   -135.44902    33160.634 
  150000     323.3249    -19219.68 0.0097449274   -17102.268    -378.5002    33546.096 
  160000    317.72412   -19346.226  0.010493568   -17265.491   -701.41298    33449.719 
  170000     316.6656   -19258.925  0.010238674   -17185.123   -442.17183    33653.062 
  180000    324.56319    -19165.66   0.01053629   -17040.137    791.66243    32985.695 
  190000    320.40302   -19155.535  0.010590958   -17057.257   -720.62428    33335.694 
  200000    322.55427   -19172.456 0.0096637409   -17060.091   -894.34239     33665.54 
  210000    317.52319    -19220.85  0.011479563    -17141.43   -198.38633    33204.367 
  220000    324.12031   -19169.539  0.010067909   -17046.917    709.00142    33107.841 
  230000    318.36165   -19091.181 0.0098043152   -17006.272    821.20493    33149.567 
  240000    323.50977   -19138.238   0.00968743   -17019.615    609.62926    33407.578 
  250000     326.4284   -19243.232 0.0097447136   -17105.495    1.4169362    33241.406 
  260000    319.68063   -19227.936 0.0097162339   -17134.389   -374.27426    33482.939 
  270000    316.74115   -19275.314 0.0096563304   -17201.017   -169.20939    33499.626 
  280000    319.16229   -19128.735 0.0097724623   -17038.583   -578.81569    33245.158 
  290000    314.29971   -19225.777 0.0096847932   -17167.469    326.43132     33092.34 
  300000    316.61489    -19283.78 0.0096738776    -17210.31    320.02885    33568.804 
  310000    320.54763   -19388.117 0.0096750945   -17288.893   -495.15895    33137.693 
  320000    323.89673   -19292.712   0.01190752   -17171.552    193.40503    33268.584 
  330000    324.29095   -19209.865 0.0099621444   -17086.125     53.45479     33578.78 
  340000    321.38723   -19202.683  0.010112254    -17097.96   -54.008737     33704.41 
  350000    317.55583   -19152.795 0.0098360027   -17073.163   -269.38561     33145.97 
  360000     326.4789   -19171.021 0.0096555761   -17032.953    218.94342    33662.332 
  370000    323.97817   -19180.576  0.010043524   -17058.885    484.01461    33710.484 
  380000     322.1565   -19290.506  0.010869411   -17180.743    326.44406    33685.888 
  390000    315.83436   -19243.285  0.010679047   -17174.926   -552.25026    33370.943 
  400000    329.07099   -19170.619 0.0099032486   -17015.576   -528.91209    33578.004 
  410000    339.74675   -19272.271 0.0098599409   -17047.314    7.4742539    33381.091 
  420000    320.65926   -19123.288 0.0096557678   -17023.332    395.64141    33284.433 
  430000    313.06635   -19241.561 0.0096657129    -17191.33    731.70661    32917.876 
  440000    330.06198   -19307.444 0.0097830862   -17145.911    510.58546    33365.676 
  450000    322.82351   -19178.442 0.0097797669   -17064.312    376.51276    32983.304 
  460000    325.63187   -19248.806  0.010260771   -17116.284    572.11532    33608.838 
  470000    333.14191   -19257.514 0.0097356974   -17075.811    198.73385    33309.876 
  480000    313.44852    -19179.04 0.0097080282   -17126.306    357.86682    33082.306 
  490000    321.98178   -19134.136  0.010246574   -17025.519    243.86491    33461.724 
  500000    320.00981   -19234.122  0.010896149   -17138.418    -198.2408    33129.071 
  510000    319.57051   -19325.018  0.010127908   -17232.192   -11.472458    33212.313 
  520000    316.27126   -19096.494  0.010036992   -17025.275     505.0886    33628.985 
  530000    317.57496   -19202.869 0.0097402106   -17123.112    448.67671    32781.909 
  540000    329.02313   -19212.198 0.0097498399   -17057.468    530.46712    32960.638 
  550000      327.125   -19282.756  0.011289023   -17140.456   -185.53575    33241.155 
  560000    318.72469   -19291.655 0.0097535786   -17204.368    712.99635     33458.23 
  570000    320.59914   -19247.704 0.0097190093   -17148.142    495.49257    32968.915 
  580000     327.3014   -19269.433 0.0096587212   -17125.978   -112.83194     33517.26 
  590000    325.19088   -19300.678  0.012822633   -17171.043    938.92166    32901.403 
  600000    335.32095   -19249.774 0.0096551002   -17053.801   -384.63534    33309.448 
  610000    326.53575   -19230.149 0.0099313876   -17091.709   -465.10066      33336.4 
  620000    315.60921   -19194.474  0.010028731    -17127.59   -258.14997    33693.937 
  630000    322.26115   -19344.194 0.0096543254   -17233.747    393.42588    32740.336 
  640000    320.96789    -19247.21  0.010004168   -17145.233    82.676299    33327.552 
  650000    326.22655   -19247.264 0.0097012429   -17110.849   -357.41564    33656.843 
  660000    321.35957   -19154.691 0.0099471973   -17050.149    536.01961    33230.246 
  670000    319.43894    -19153.18 0.0096598949   -17061.216    367.76221    33489.338 
  680000    320.28374   -19173.298 0.0097250966   -17075.801    177.81213    33260.684 
  690000    329.50603     -19163.5  0.010249915   -17005.608   -437.54761     33578.02 
  700000     314.2092   -19157.057 0.0099457151   -17099.342    57.403624    33441.315 
  710000    328.20606   -19213.252 0.0097747855   -17063.873    921.73543    33303.128 
  720000    321.58842   -19180.955 0.0096556577   -17074.915    541.71755    32724.129 
  730000    306.05573   -19230.784  0.009655208   -17226.465   -659.12436    33595.563 
  740000    324.24602   -19198.927 0.0096554189   -17075.482    220.06751    33322.859 
  750000    313.41676     -19086.8      0.01014   -17034.274    634.19687    33132.465 
  760000    318.92007   -19326.366  0.010125179   -17237.799    222.68818    33029.372 
  770000    325.73727   -19234.194  0.010034862   -17100.983   -475.71779    33622.788 
  780000     316.5733   -19123.669 0.0099109162   -17050.471    180.93327    33229.233 
  790000    323.02087   -19165.064 0.0096816054   -17049.643   -400.02007    33253.239 
  800000    326.33022   -19159.442  0.010029654   -17022.347   -40.628377    33290.922 
  810000    319.63479    -19228.62  0.010320713   -17135.373    595.80501     33354.88 
  820000    321.40843   -19364.406  0.010089956   -17259.543    142.74503    33114.799 
  830000    311.60981   -19197.973 0.0096544199   -17157.281    993.43592    33396.222 
  840000      326.709   -19248.552 0.0096925523   -17108.978    226.19054    33300.374 
  850000    322.33499   -19184.181   0.01019808    -17073.25   -313.22385    33318.031 
  860000    317.41041   -19332.593  0.010476064   -17253.913    370.34549    33484.359 
  870000      329.027   -19200.773  0.010568309   -17046.018    546.73131    33200.976 
  880000    326.63017   -19180.708  0.011402745   -17041.648   -607.88008    33644.395 
  890000      326.654   -19203.914 0.0097175534     -17064.7    209.03884    33475.221 
  900000    320.45441   -19206.642 0.0097859124   -17108.028    588.96076    33235.098 
  910000    326.87466   -19235.812  0.010188742   -17095.152   -948.52606    33568.313 
  920000    317.00439   -19164.236 0.0096581622   -17088.216    48.114264    33314.884 
  930000    323.39506   -19219.289  0.010245393   -17101.417    3.7169408    32963.474 
  940000    318.10385   -19307.472  0.010211323   -17224.251    -903.5508    33478.901 
  950000    326.24813   -19053.314 0.0097065139   -16916.758   -383.77451    33660.349 
  960000    335.87125   -19176.199  0.010008799   -16976.622    360.64919    33503.532 
  970000    330.53259   -19276.907 0.0098703792   -17112.292    199.75498    32717.929 
  980000    321.91799   -19123.907 0.0096911744   -17015.708    96.067235    33454.146 
  990000     320.0677   -19214.005  0.010232261   -17117.922   -22.220652    33400.176 
 1000000    326.13968   -19286.603 0.0099231537   -17150.756   -171.93196    33407.707 
 1010000     325.6848   -19217.662 0.0097282364   -17084.795    181.23293    33772.022 
 1020000    321.51419   -19224.319 0.0096766106   -17118.765   -293.53081    33208.287 
 1030000    327.24676   -19244.942 0.0099894138   -17101.846    6.9620996    32896.038 
 1040000    312.32446   -19144.629  0.011170528   -17099.255    209.26641    33627.311 
 1050000    321.44794   -19127.194 0.0098630284   -17022.073   -172.23398    33500.675 
 1060000    318.13237    -19335.51 0.0098711284   -17252.103   -565.30618    33316.143 
 1070000    317.64038   -19236.697   0.01058656   -17156.511    240.63977    33242.504 
 1080000    316.38399   -19181.137 0.0098672666   -17109.179    1064.7416      33447.8 
 1090000    322.44073   -19242.935  0.010827739   -17131.311    -913.9099    33324.031 
 1100000    319.13144   -19231.909  0.010836247   -17141.958    94.012636    33640.219 
 1110000    318.48956   -19190.581  0.010283632   -17104.834     115.5993    33245.268 
 1120000    319.11551   -19132.339 0.0096646057   -17042.493   -839.61637    33598.624 
 1130000    322.55379   -19145.615 0.0098323752   -17033.252    407.24306    33585.992 
 1140000    328.05695   -19163.443 0.0097266629   -17015.041    -35.16138    33252.847 
 1150000    316.58158   -19212.395 0.0097039186   -17139.143    389.09303    33171.564 
 1160000    331.29911   -19178.841 0.0096582558   -17009.206   -212.59699    33604.151 
 1170000    317.54285   -19221.279 0.0097283223   -17141.732   -705.45996    33595.412 
 1180000    324.50164   -19270.719 0.0097520427   -17145.601   -438.42429    33240.175 
 1190000    316.10984   -19263.472 0.0097733367    -17193.31    797.18717    32806.117 
 1200000    325.59342   -19264.408  0.010793199   -17132.138   -512.50808    33237.661 
 1210000    329.48255   -19254.854 0.0096693341   -17097.116   -844.16246    33233.408 
 1220000    321.14705   -19206.178 0.0097946108   -17103.027   -262.71644    33741.903 
 1230000    323.03072   -19235.855  0.010141178   -17120.369    382.25642    33480.287 
 1240000    332.40567   -19181.091  0.010020187    -17004.21    531.28085    33303.967 
 1250000    316.08861   -19267.047 0.0096584368   -17197.024    354.59394    33302.654 
 1260000    318.00047   -19178.193  0.010185669   -17095.649   -305.81394     33345.79 
 1270000    320.36279   -19261.669  0.011670379   -17163.653    41.403685    33379.281 
 1280000    310.81865   -19234.368 0.0099373919   -17198.857    376.74742    33263.464 
 1290000    327.91833   -19247.608 0.0099237196   -17100.113   -65.955583    33338.729 
 1300000    318.25848   -19115.278 0.0099039666   -17031.044   -1030.8391    33211.187 
 1310000    326.92657   -19206.485  0.010235744   -17065.485   -298.01952    33834.752 
 1320000    314.99206   -19255.115 0.0097431941   -17192.273   -228.75679    33124.693 
 1330000    311.70937   -19340.718  0.010135222   -17299.373    212.46449    33081.761 
 1340000    321.60122   -19173.384 0.0098833149   -17067.259   -92.734826    33464.308 
 1350000    325.47677    -19264.78 0.0096924489   -17133.275   -627.18871    33577.533 
 1360000    334.70423   -19136.002 0.0096554585   -16944.068    865.65901    33215.235 
 1370000    320.42543   -19153.363 0.0096566719   -17054.939   -681.46368    33305.279 
 1380000    319.73266   -19154.494 0.0097702754   -17060.606    495.14394    32936.701 
 1390000    325.08653   -19210.438 0.0096999455   -17081.488    468.83942    33542.368 
 1400000    318.16124   -19201.513  0.010660096   -17117.915    562.33036    33375.667 
 1410000    319.15737   -19261.188   0.01036853   -17171.068   -759.40786    33659.635 
 1420000    322.72726   -19206.203  0.010393347   -17092.703    497.73254    33068.121 
 1430000    324.80662    -19263.63 0.0096587077   -17136.514    828.42299    32724.285 
 1440000    326.21817   -19298.582 0.0097770572   -17162.222    22.408454     33195.01 
 1450000    314.18362   -19255.172 0.0098048193   -17197.624   -212.48406    33076.102 
 1460000     315.1845   -19240.379 0.0097859061   -17176.276   -749.77955    33057.385 
 1470000    322.78517   -19145.557  0.009699936   -17031.679    77.128161    33407.966 
 1480000     323.2296   -19103.553  0.010753099   -16986.763   -312.82137    33324.737 
 1490000    334.71907    -19247.28 0.0097589734   -17055.249    315.56586    32821.056 
 1500000    319.49205   -19259.263 0.0098302425   -17166.951   -1423.2303    33375.475 
 1510000    316.70677   -19197.227  0.010371754   -17123.154    -241.9174    33735.374 
 1520000    326.29168   -19246.469 0.0097501006   -17109.628   -362.70686     33230.23 
 1530000    314.43147   -19223.856 0.0097979041   -17164.685    1044.7947    33592.367 
 1540000    319.69401   -19244.364 0.0098138874   -17150.729   -786.33221    33551.725 
 1550000    319.23256   -19180.122  0.010128442   -17089.509    253.17449    33386.601 
 1560000    333.21218   -19159.753 0.0096547799    -16977.59    654.33167    33548.035 
 1570000    316.71178   -19277.589  0.010072758   -17203.484   -1219.6159    33444.649 
 1580000    327.70178   -19238.757 0.0096592859   -17092.681    246.07393    33543.032 
 1590000    319.08644   -19273.853  0.010534784   -17184.197   -1.0933125    32901.323 
 1600000    318.26073   -19172.285  0.012200154   -17088.035   -493.70234    33499.071 
 1610000    330.42731   -19294.308 0.0097356904   -17130.383   -468.81379    33634.043 
 1620000    314.39755   -19313.998 0.0096558807    -17255.05    728.37535    32755.122 
 1630000    319.31061   -19218.487 0.0097224235   -17127.363    278.42782    33216.153 
 1640000    318.28327   -19196.668  0.011015422    -17112.27    651.17989    33535.296 
 1650000    321.15931   -19181.663 0.0097409831   -17078.432    -17.87404    33607.049 
 1660000    318.43029   -19270.457 0.0098172978   -17185.098   -781.27421      33266.5 
 1670000    321.32659   -19275.251 0.0096570539   -17170.925   -428.78219    33421.416 
 1680000    317.19744   -19219.961  0.010432048   -17142.676    410.15593     33229.79 
 1690000    329.16623   -19196.169  0.010580501   -17040.501    -1022.816    33685.405 
 1700000    315.63125   -19207.629 0.0099248617     -17140.6   -835.05285    33118.983 
 1710000    320.71699   -19246.691 0.0096712643   -17146.358     -583.418     33424.05 
 1720000    319.87635   -19160.158  0.009695093   -17065.329    60.008407    33659.505 
 1730000    322.12904    -19290.16  0.010061972   -17180.579   -434.45033    33514.492 
 1740000     323.4026   -19231.943 0.0097275318   -17114.021   -241.61992    33342.629 
 1750000    318.21368   -19295.066 0.0096607087   -17211.126   -10.490544    33169.924 
 1760000     330.3403   -19178.461 0.0096579961   -17015.106   -25.436973    33412.323 
 1770000    323.10361   -19192.231 0.0096691182   -17076.267    -139.2717    33382.042 
 1780000    325.81614   -19158.349  0.011932521   -17024.619    788.91327    33538.348 
 1790000    318.68508   -19125.477 0.0096538579    -17038.45   -318.97838      33390.7 
 1800000    328.10587    -19103.51 0.0096768121   -16954.788   -150.38733    33635.153 
 1810000    327.41885   -19209.744 0.0097723185   -17065.521   -319.68655    33416.575 
 1820000    318.35167   -19253.533  0.010152352   -17168.689    102.95006    33244.315 
 1830000    340.89162   -19233.432  0.010039973   -17000.977    434.95201    32909.769 
 1840000    328.10226   -19270.855 0.0098578888   -17122.156   -316.54906    33674.115 
 1850000    319.81709   -19139.538  0.010084696   -17045.097    80.324083    33575.726 
 1860000    321.19765   -19125.697 0.0096703539   -17022.215   -784.50291    33733.642 
 1870000    314.78609   -19146.545 0.0096555526   -17085.052    920.57572    32936.968 
 1880000    322.18551   -19304.288 0.0096764587   -17194.337   -676.04847    33437.898 
 1890000    318.91163     -19179.6  0.010883174   -17091.088   -184.74395    33485.422 
 1900000    328.98781   -19125.813 0.0097074392   -16971.315   -71.672394    33700.402 
 1910000      329.665   -19196.834  0.010274295   -17037.901   -332.08111    33239.195 
 1920000    322.81209    -19133.24 0.0096553013   -17019.185   -797.72044    33536.104 
 1930000    332.03547   -19192.442   0.01006619   -17017.985    486.19675     33243.11 
 1940000    331.97622   -19274.216  0.010463232   -17100.147   -957.81905    33369.227 
 1950000    329.21219   -19238.631  0.011035954   -17082.662    445.83574     33324.84 
 1960000    313.93178    -19290.79 0.0096876941   -17234.891   -635.69885    33199.383 
 1970000    324.49378   -19234.248  0.010409365    -17109.18   -817.73466    33502.244 
 1980000    324.12972   -19177.504 0.0097476025   -17054.821   -322.03266    33498.814 
 1990000     327.9583   -19202.447  0.010455631    -17054.69     54.00281    33119.386 
 2000000    323.79722   -19134.405 0.0098294768   -17013.899   -832.97685    33107.161 
 2010000    329.58437   -19163.528 0.0097695645   -17005.123   -38.700423    33569.631 
 2020000    319.98323   -19154.032 0.0096575379   -17058.503    375.64633    32967.543 
 2030000    312.81315   -19183.984  0.010835521    -17135.41    300.26893    33090.373 
 2040000    318.92383   -19110.172 0.0097431324   -17021.581    470.43313    33016.259 
 2050000    327.06215   -19251.541 0.0096949488   -17109.653    -200.3269     33875.66 
 2060000    322.86836   -19397.892 0.0096722682   -17283.469    389.93724    32837.025 
 2070000    313.51848   -19213.007  0.009684369   -17159.815    516.29513     32966.51 
 2080000    327.76181   -19160.315 0.0096691272   -17013.845   -204.80462    33615.751 
 2090000     331.8594   -19124.729 0.0096580392   -16951.426    117.99335    33571.566 
 2100000    327.04706   -19251.677   0.01011005   -17109.888   -509.17751    33450.252 
 2110000    315.62632   -19277.825  0.010702651   -17210.828   -723.02141    33190.934 
 2120000    326.86595    -19300.99 0.0097339921   -17160.388    546.99713    33153.693 
 2130000     319.1677    -19117.03 0.0098077735   -17026.842    621.04901    33234.962 
 2140000    323.34356   -19300.735 0.0096654452     -17183.2    773.25382    32912.417 
 2150000    321.88511   -19190.794  0.012594342   -17082.808   -376.39739    33815.411 
 2160000    321.31201    -19211.17  0.010100912   -17106.939   -300.97548    33310.888 
 2170000    324.40438   -19149.413  0.011274668    -17024.93     1341.728    33102.869 
 2180000    329.97081   -19270.894 0.0096550202   -17109.959    695.22025    33115.343 
 2190000    320.22047   -19119.752 0.0096580996    -17022.67    471.25541    33897.196 
 2200000    323.96532   -19094.874 0.0096532882   -16973.267    386.59916    33581.997 
 2210000    324.64302    -19237.69 0.0098951684   -17111.645    114.29287    33477.641 
 2220000    336.80499   -19162.463 0.0097935079   -16956.771    197.07395    33486.894 
 2230000    319.07466   -19258.316 0.0096546952   -17168.738   -66.843911    33114.449 
 2240000    328.50568   -19292.333 0.0097265414   -17140.992    486.71164    33196.652 
 2250000     321.1155   -19303.861  0.010043998   -17200.917   -47.653965    32923.131 
 2260000    317.00028   -19269.092 0.0096821524   -17193.099    48.028919    33233.244 
 2270000    330.92236   -19273.813 0.0096655264   -17106.646    16.755592     33146.95 
 2280000    335.98137    -19225.38 0.0096591568   -17025.082   -9.8522441    33234.078 
 2290000    323.05475   -19279.283 0.0099052575   -17163.639   -72.552925    33330.482 
 2300000    319.44331   -19260.783  0.009939129    -17168.79   -174.82992    33229.431 
 2310000    322.37442   -19299.354 0.0097185671   -17188.166   -540.35159    33627.889 
 2320000    313.36652   -19279.055 0.0096546995   -17226.858    87.561088    33432.813 
 2330000    316.52355   -19227.922  0.011306478   -17155.049   -246.25563    33649.266 
 2340000    329.10851   -19177.072  0.010554819   -17021.783   -50.219701     33529.64 
 2350000    325.85795   -19145.875 0.0096976192   -17011.874   -188.84736    33671.567 
 2360000    324.72942   -19107.174 0.0096619421   -16980.563    93.826152     33501.25 
 2370000    327.31533   -19202.167  0.010490865    -17058.62    1007.4546    33207.821 
 2380000     320.2617   -19068.655 0.0098849797   -16971.302   -557.84611    33621.123 
 2390000    314.78741   -19160.516 0.0099495544   -17099.014    23.482056     33559.42 
 2400000    322.09365   -19132.421  0.009673273   -17023.071    257.41646    33618.216 
 2410000    325.42028   -19249.711 0.0097079191   -17118.576     276.7882    33465.604 
 2420000    329.40282   -19196.645 0.0097121237   -17039.429   -527.37691    33892.067 
 2430000     322.3885   -19203.369  0.009706038   -17092.089    377.58871    33268.831 
 2440000     320.3632   -19280.823 0.0096511601   -17182.807   -109.96875    33413.624 
 2450000    315.94971   -19224.416  0.010579209   -17155.302   -275.42082    33491.648 
 2460000    334.54823   -19163.696  0.011014529   -16972.782     13.01832    34089.911 
 2470000    327.83948   -19200.068 0.0098764792    -17053.09   -86.575996    33466.187 
 2480000    329.95891   -19211.696 0.0097671367   -17050.838     244.0691     33070.56 
 2490000    326.10201   -19249.978  0.010132763   -17114.378     388.0949    33033.513 
 2500000    321.33506   -19146.385 0.0098026693   -17042.003     541.0643    33189.978 
 2510000    328.31399   -19186.837  0.010473906   -17036.751   -121.72327    33279.096 
 2520000    322.43892   -19164.107 0.0096818044   -17052.496    305.34694    33333.038 
 2530000    327.83575   -19240.935 0.0098370679   -17093.981   -81.045392    33464.612 
 2540000    316.99603   -19191.123  0.009723243   -17115.157    38.027598    33433.721 
 2550000    320.61147   -19142.851  0.010755865   -17043.207    1660.1603    32985.549 
 2560000    330.37309   -19266.113 0.0097117055   -17102.543     77.75577    33324.348 
 2570000     323.0166   -19178.649 0.0098974496   -17063.255    222.70995     33435.24 
 2580000    323.92774   -19121.782 0.0096908142   -17000.421   -782.70992    33294.928 
 2590000    320.63254   -19249.633 0.0096816833   -17149.852     193.6399    33272.227 
 2600000    337.27552   -19297.999  0.011287037   -17089.225    -751.8513    33316.406 
 2610000     310.1489   -19251.871  0.010420751   -17220.745   -624.06723     33161.59 
 2620000    324.58481   -19218.135 0.0097445714   -17092.472   -218.05411    33616.596 
 2630000     315.5727   -19364.956 0.0097704673   -17298.311   -428.89983    33320.647 
 2640000    324.29122   -19175.351 0.0097385118    -17051.61   -840.47952     33463.15 
 2650000    334.53845   -19267.437  0.010642264   -17076.588    71.378636    33280.947 
 2660000     326.1567   -19106.387  0.009725489   -16970.429    133.63346    32844.188 
 2670000    319.85171   -19198.395 0.0097541185   -17103.728    20.058649     33262.16 
 2680000    322.07203   -19298.764   0.01105014   -17189.555    831.68344    32755.466 
 2690000    323.44314   -19335.533 0.0097588861   -17217.346   -540.04958    32990.062 
 2700000    329.76973   -19213.281 0.0098285971   -17053.662   -374.68116    33153.236 
 2710000    310.69339   -19201.869 0.0098530682   -17167.178    599.74877    33554.574 
 2720000    317.92108   -19174.976 0.0096551689   -17092.952   -64.749637      33393.8 
 2730000    315.94783    -19272.02  0.010403792   -17202.918   -247.68273    33764.796 
 2740000    319.74393   -19142.921  0.010422108   -17048.959     171.5597    33055.058 
 2750000    318.33487   -19263.575 0.0098123649   -17178.841   -22.128944    33313.934 
 2760000    319.07374   -19281.845 0.0099991718   -17192.272    1224.9135    33281.989 
 2770000    325.87736   -19223.589 0.0097360233   -17089.461   -333.96808    33485.692 
 2780000    323.66536   -19181.606   0.01001658   -17061.963   -980.57693    33787.509 
 2790000    317.38574   -19166.484  0.010408261   -17087.966    67.724857    33425.767 
 2800000    327.93015   -19226.176  0.010620649   -17078.604   -716.30762    33625.904 
 2810000    321.05085   -19279.908 0.0098380026   -17177.388   -141.67185    33500.355 
 2820000    320.77882   -19187.629  0.010254236   -17086.889    515.64691    33312.167 
 2830000    325.86126   -19136.875 0.0097898323   -17002.853    119.69284    33185.105 
 2840000    326.33838   -19188.124 0.0097712658   -17050.977    350.57173    33414.884 
 2850000     314.5528   -19175.826  0.010457752   -17115.859   -874.35439    33363.927 
 2860000    317.63025   -19201.627  0.010036469   -17121.508     1028.441    33409.187 
 2870000    328.81964   -19174.535 0.0099160345   -17021.138   -143.75172    33323.059 
 2880000    321.15601   -19282.112 0.0096682734   -17178.903     1279.066    33048.539 
 2890000     332.1445   -19266.422 0.0096704276   -17091.252    755.68661     33205.91 
 2900000    326.04556   -19211.637  0.010176809   -17076.407    28.165036    33441.786 
 2910000     322.7441    -19177.74 0.0099100567   -17064.131   -1008.7117    33698.192 
 2920000    319.88747   -19304.136   0.01001071   -17209.234    894.30382     33027.87 
 2930000    333.18883   -19232.383 0.0098661704   -17050.373   -16.934768    33049.437 
 2940000    305.66012   -19283.991  0.010073419   -17282.261   -442.79624    33063.729 
 2950000     317.1134   -19232.181  0.010095705   -17155.446    180.03926    33283.053 
 2960000    329.58417   -19333.753 0.0096998752    -17175.35    432.93035    33289.552 
 2970000    327.77736   -19204.355 0.0099609705   -17057.784   -17.344649    33250.034 
 2980000    323.11754   -19181.228   0.01020827   -17065.173   -171.24003     33218.25 
 2990000    320.30131    -19165.53  0.010475634   -17067.918   -649.48984    33466.884 
 3000000    323.33188    -19231.14  0.010234024   -17113.681    147.42131    33450.732 
 3010000    322.69352    -19206.85 0.0098426849   -17093.572   -245.08855    32983.401 
 3020000      324.107   -19280.202  0.009998591   -17157.667   -76.764421    33283.623 
 3030000    323.00725   -19291.423 0.0099051387   -17176.091   -242.70929    33218.439 
 3040000    322.98369   -19201.309 0.0096965448   -17086.131   -577.57129     33275.16 
 3050000    321.26349    -19285.71 0.0098399345   -17181.797   -181.07123    33029.502 
 3060000    327.57547   -19188.013 0.0096609937   -17042.764   -231.48763     33582.21 
 3070000    322.50436   -19295.253 0.0098314503   -17183.214    875.68167    33235.302 
 3080000    326.34423   -19186.243   0.01094441   -17049.056    1213.5482    33601.215 
 3090000    328.39809    -19198.48  0.010317003   -17047.844   -271.72634    33351.425 
 3100000    327.64993   -19103.065  0.011259682   -16957.327    168.42597     33271.77 
 3110000    317.08634   -19157.429 0.0096664619   -17080.871    284.36095    33473.401 
 3120000    330.24266   -19151.646 0.0098293504   -16988.929    257.52666    33529.526 
 3130000    307.30836   -19207.092  0.010278842   -17194.569   -439.96663    33449.151 
 3140000    315.05534   -19204.697 0.0097058354    -17141.44    839.02107    33396.253 
 3150000    324.99297   -19138.319 0.0096703147   -17009.983   -933.92151    33491.127 
 3160000    319.51182   -19189.207 0.0097792681   -17096.766   -731.26545     33483.91 
 3170000    325.52024   -19308.625  0.010245421   -17176.835   -424.55602    33381.256 
 3180000    324.20626    -19239.06 0.0096550601   -17115.876    -274.4883    33740.782 
 3190000    320.30543   -19273.545  0.010041094   -17175.906   -154.35151    32870.938 
 3200000    315.54796   -19270.922  0.009683567   -17204.439   -290.09833    33590.252 
 3210000    318.67998   -19222.048 0.0099943037   -17135.054    963.16138    33195.919 
 3220000    331.46445   -19199.027  0.010137396   -17028.309    -35.73265    33477.422 
 3230000    322.06175   -19217.246  0.011389016   -17108.104    200.33402    33178.871 
 3240000    313.25356   -19169.598 0.0097171026   -17118.141    -547.2628    33818.993 
 3250000     327.5094   -19231.373 0.0097631805   -17086.557   -70.854427    32913.972 
 3260000    315.76205   -19187.787 0.0099641762   -17119.902    994.86122    33124.242 
 3270000    330.57254   -19160.872  0.010353108   -16995.995   -139.77494     33331.37 
 3280000    319.90389   -19172.138   0.01008838   -17077.129    109.28096    33717.837 
 3290000    320.14145   -19303.644 0.0097077057   -17207.079    -733.8414    33282.038 
 3300000      330.527   -19188.465 0.0098996453   -17023.887    35.395784    33359.093 
 3310000    315.53364   -19253.754   0.01006738   -17187.364   -159.35558    33265.878 
 3320000    329.10267   -19196.554 0.0098299775   -17041.303   -303.90817     33418.41 
 3330000    328.12089   -19219.994  0.010743722   -17071.172    87.828728    33650.753 
 3340000    326.51826   -19158.878  0.009652683   -17020.553    694.62695    32963.792 
 3350000    314.35839   -19231.654 0.0098316602   -17172.962   -95.739659    33320.112 
 3360000    320.63245   -19229.804 0.0097118076   -17130.024   -573.51503    33346.007 
 3370000    327.34714   -19299.295  0.011985569   -17155.539   -20.501675    33393.929 
 3380000    321.36713   -19216.773 0.0097112359   -17112.181   -28.909552    33530.619 
 3390000    315.31395   -19247.045   0.01001259   -17182.094   -349.03226    32953.734 
 3400000    311.10988   -19215.329 0.0099009739    -17177.91    839.75805    33497.186 
 3410000     329.9811   -19235.296 0.0096525084   -17074.294   -168.46817    33180.986 
 3420000    327.41458   -19288.099 0.0097647738   -17143.904   -189.78006    33191.755 
 3430000    319.49303    -19152.75   0.01051031   -17060.431   -151.45843    33533.183 
 3440000    323.09165   -19120.142 0.0099120383   -17004.257    353.87504    33124.701 
 3450000    316.03622   -19226.886 0.0099897733   -17157.205    519.72936    33018.461 
 3460000    322.84025   -19140.847   0.01059041   -17026.608     833.6716    33232.716 
 3470000    315.49761   -19158.133 0.0098410448    -17091.98    -272.4921    33958.622 
 3480000    319.35942   -19222.382 0.0096809181   -17130.939     444.8168    33499.447 
 3490000    328.09467   -19207.944 0.0096690693   -17059.295     551.9592    33452.722 
 3500000    316.90734   -19242.879  0.010213502   -17167.494    270.24684    33242.437 
 3510000       318.96   -19207.112  0.010049046   -17118.284    181.12688    33365.646 
 3520000    317.33499   -19358.624  0.010119078   -17280.438   -1002.0697     33383.42 
 3530000    318.76727   -19235.343 0.0096959153   -17147.777   -177.08769    33117.554 
 3540000     332.6621   -19152.884  0.010607074   -16974.323    -63.12599    33661.133 
 3550000    318.78075   -19261.454  0.009840508     -17173.8    255.30124    32953.024 
 3560000     316.6489   -19230.451  0.010611981   -17156.757    184.69711    33444.146 
 3570000    324.07201   -19215.604  0.010553396   -17093.298    192.69285    33280.127 
 3580000    325.61088   -19235.855 0.0097973608   -17103.471    645.09219    33106.277 
 3590000    317.76915   -19234.195 0.0096557907   -17153.166   -467.33978    33107.937 
 3600000    320.06373   -19310.781  0.010152665   -17214.725    328.58381     33331.81 
 3610000    322.44487   -19089.391  0.010154772   -16977.741   -1269.5392    34061.353 
 3620000    319.75961   -19200.967  0.010271691   -17106.902    209.51856    33385.014 
 3630000    326.82462   -19133.219  0.010718783   -16992.886    33.739535    33459.721 
 3640000     317.2784   -19149.563  0.012365213   -17071.745    -553.3115    33992.827 
 3650000     324.5939   -19254.461 0.0096648983   -17128.738    398.56347    33245.263 
 3660000    318.97279   -19146.015  0.010506975   -17057.103   -216.79875    33364.439 
 3670000    314.69891   -19230.953 0.0096776265    -17170.03    466.73331    33012.043 
 3680000    327.95143   -19230.836  0.010077036   -17083.124     226.7511    33287.806 
 3690000    327.14967   -19178.006 0.0097268858   -17035.545    414.24989    33684.603 
 3700000    328.28836   -19333.223 0.0099599036   -17183.305    544.13188     32850.24 
 3710000    324.80408   -19259.398 0.0098755776   -17132.298    496.54789    33050.208 
 3720000     331.6208   -19126.347 0.0097329689   -16954.606   -454.83884    33423.925 
 3730000    312.66954   -19203.106 0.0097886261   -17155.474    702.03047     33255.92 
 3740000    323.31746   -19117.864  0.010215148   -17000.499    -902.6137    33359.003 
 3750000    325.72487   -19195.327 0.0096552417   -17062.197     229.3459    33389.584 
 3760000    320.06609   -19221.342  0.011558045   -17125.269    249.37993    33768.144 
 3770000     318.6977   -19131.799 0.0096674526   -17044.689    136.21386    33518.526 
 3780000    320.43548    -19213.47 0.0096843521    -17114.98     160.4381    33440.611 
 3790000     331.6209   -19240.773  0.010456759    -17069.03    154.71221    33612.801 
 3800000    323.29945   -19244.993  0.010395869   -17127.747   -685.53842     33000.05 
 3810000    328.14839   -19267.413  0.009698504   -17118.412    1242.0427    33288.495 
 3820000    311.38296   -19271.899 0.0097750997   -17232.692    403.26455    33455.799 
 3830000    327.48483   -19190.897 0.0097257818   -17046.241   -213.07519    33461.395 
 3840000    324.33472   -19181.981 0.0098207927   -17057.956    441.95447    33433.922 
 3850000    316.98864   -19135.156 0.0098793453   -17059.238    862.36239    33420.265 
 3860000    325.64804   -19254.789 0.0097984777   -17122.163    28.434012    33116.719 
 3870000    319.67856   -19235.473 0.0096862133   -17141.939    499.06272    33429.904 
 3880000    315.50825   -19179.119 0.0098384449   -17112.897    40.173155    33505.573 
 3890000    314.80299   -19209.146  0.009664744   -17147.542   -37.835839    33246.183 
 3900000    322.74473   -19227.941 0.0096738746   -17114.328    895.41817    33159.749 
 3910000    327.50037   -19284.473 0.0097506709   -17139.716   -251.72088    33273.071 
 3920000    323.16908   -19161.123  0.009657978   -17044.731   -547.24761    33753.923 
 3930000    316.33742   -19086.918  0.009889228   -17015.265   -187.53496    33334.435 
 3940000    323.62505   -19257.858  0.010302096   -17138.479    327.97874    33257.952 
 3950000    333.81217   -19222.434 0.0098513069   -17036.341    15.935249    33584.807 
 3960000    332.27166   -19110.437 0.0096611944   -16934.433   -364.34376    33438.051 
 3970000    320.76535   -19086.674  0.010118996   -16986.023   -247.24965     33979.18 
 3980000    327.66159   -19195.609  0.012111021   -17049.794   -50.002814    33445.337 
 3990000    326.01406   -19225.038 0.0099082159   -17090.015    508.75144    33413.183 
 4000000    321.34503    -19152.04 0.0096563271   -17047.593   -530.70222    33467.554 
 4010000    320.39806   -19281.989  0.010699676   -17183.743   -406.62642    33395.064 
 4020000    320.07483   -19153.772  0.010176637   -17057.643   -218.71174    33292.827 
 4030000    327.63806   -19166.267 0.0096533718   -17020.608    95.667267    33612.093 
 4040000    326.03068   -19109.328  0.010161471   -16974.195   -35.715467    33283.087 
 4050000    318.83453   -19219.836 0.0098194817    -17131.83   -153.56019    33384.215 
 4060000    315.22934   -19207.123 0.0097621374   -17142.727   -276.71509    33156.076 
 4070000    326.33346   -19088.939  0.013299885    -16951.82   -673.18724    33731.254 
 4080000    328.75447   -19259.207  0.010860676   -17106.235    167.60048    33652.015 
 4090000    328.12259   -19174.176 0.0097714123   -17025.344     156.6366    33740.539 
 4100000    320.22738    -19235.79  0.010555689   -17138.661   -629.54787    33987.249 
 4110000    317.54844   -19222.839 0.0096631063   -17143.255    184.12266    33457.873 
 4120000    329.49131   -19251.011 0.0096540972   -17093.216   -1567.3258    33692.984 
 4130000    313.68896    -19233.19 0.0096545619   -17178.882   -815.47959    33349.786 
 4140000    327.29234   -19200.479 0.0097043721   -17057.085   -815.55975    33459.157 
 4150000    329.03643   -19171.276  0.010058949    -17016.46   -266.39605    33627.265 
 4160000    327.93824   -19205.698 0.0097132108   -17058.073   -554.11603    33244.887 
 4170000    327.35745   -19176.745 0.0098083243   -17032.924   -516.40608    33712.652 
 4180000    328.23356   -19212.247  0.010212726   -17062.688    353.62019    33323.861 
 4190000    328.22333   -19264.022  0.010545096    -17114.53    -291.9501    33294.769 
 4200000     325.2527    -19359.09  0.010149075   -17229.052    181.44888    32789.394 
 4210000    324.81361   -19211.024  0.010027254   -17083.862   -1245.5798    33380.317 
 4220000     323.0195   -19187.785 0.0096553194   -17072.372    484.54558    33632.802 
 4230000    320.11806   -19155.213 0.0098364163   -17058.801   -523.55445    33318.698 
 4240000    306.94454   -19060.841 0.0096773099   -17050.701   -214.66873    33975.675 
 4250000    331.69739   -19119.347  0.010624497   -16947.103   -536.65745    33718.155 
 4260000    319.70859   -19309.651 0.0096956977   -17215.921     386.0471    33360.992 
 4270000    316.85318   -19216.414 0.0099991755   -17141.384    1134.8689    33101.215 
 4280000    319.86173   -19223.885 0.0098766027   -17129.152    114.15729    33777.913 
 4290000    321.68704   -19221.633 0.0096936256   -17114.947    308.83409    33304.364 
 4300000    321.39942    -19140.37 0.0096646847   -17035.567   -980.98923    33641.973 
 4310000    324.35003   -19221.061 0.0099380422   -17096.935   -174.03205    33605.134 
 4320000    317.15357   -19170.237 0.0099666908   -17093.239   -209.91497    33348.838 
 4330000    322.74565   -19268.305  0.010802851   -17154.685   -294.28723    33286.751 
 4340000    316.33674   -19172.315 0.0099964383   -17100.666    241.82566    33049.959 
 4350000    326.67514   -19119.053 0.0097296467     -16979.7   -458.84798    33741.642 
 4360000    325.08043    -19239.05  0.010461228    -17110.14    -29.78727    33549.943 
 4370000    311.61993   -19244.704 0.0097402404   -17203.945     493.1938    33236.232 
 4380000    320.28479   -19126.248 0.0096735522   -17028.744    409.92773    33443.242 
 4390000    323.60984   -19108.179 0.0098016012     -16988.9    816.20171    33034.005 
 4400000     323.9483   -19248.722 0.0097966117   -17127.226   -533.37539     33619.18 
 4410000    317.43279   -19209.095 0.0097537837   -17130.269   -102.23839    33045.881 
 4420000    319.74973   -19165.661  0.009697461   -17071.662   -259.21929    33418.273 
 4430000    328.87403    -19138.29 0.0096560982   -16984.537    44.680271    33802.536 
 4440000    330.05525   -19263.049 0.0097467148    -17101.56    432.44807    33439.396 
 4450000    330.49519   -19124.873 0.0096552637   -16960.503    539.02552    33589.117 
 4460000     332.7962   -19261.865 0.0096914121   -17082.426    163.42539    33468.882 
 4470000     318.8673   -19230.149 0.0097131641   -17141.928   -788.60973    33370.349 
 4480000    320.86428   -19269.819 0.0097170867    -17168.52    24.152938    33533.976 
 4490000    319.69931   -19141.745  0.011187657   -17048.074    -166.7316    33171.097 
 4500000    329.42334   -19242.614  0.010242815   -17085.264   -242.29689    33340.639 
 4510000    321.70067   -19224.941  0.011746647   -17118.163    290.89106    33472.769 
 4520000    319.40743   -19269.593 0.0096829176   -17177.835   -221.60338    33374.948 
 4530000    330.42081   -19153.554 0.0096893143   -16989.671    753.40079    33622.602 
 4540000    308.33208   -19351.721 0.0097767907   -17332.494   -509.31558    33270.686 
 4550000    321.06838   -19239.948  0.010213001   -17137.312   -424.28867    33843.078 
 4560000    329.75538   -19191.597  0.010073084   -17032.072    480.07387    33064.384 
 4570000    322.86399   -19190.659 0.0098807281   -17076.264   -325.60951    33353.029 
 4580000    327.53219   -19170.182 0.0097429075   -17025.216    178.75898    33376.917 
 4590000    316.61242   -19199.814 0.0096636967   -17126.361    18.214885    33237.976 
 4600000    324.13758   -19185.303 0.0097651318   -17062.568    650.47626    33049.482 
 4610000     316.4478   -19280.388 0.0097009753   -17208.013    -326.0771    33600.977 
 4620000    317.78487   -19110.173 0.0099668225   -17029.041   -322.32598    33321.611 
 4630000    325.92088   -19330.172 0.0096669754   -17195.759    434.82824    33358.975 
 4640000    321.09998   -19255.541 0.0096700575   -17152.699   -443.62662    33842.923 
 4650000    324.50932   -19247.924 0.0098953526   -17122.755   -658.63288    33652.319 
 4660000    328.12264   -19240.635  0.010067433   -17091.803    101.12208     33512.42 
 4670000    323.62619   -19209.872 0.0097322299   -17090.486   -581.02646    33603.573 
 4680000    324.03252   -19237.457 0.0097645074    -17115.41   -524.02518    33011.327 
 4690000    320.23879   -19213.148  0.010454245   -17115.945    457.53063    33184.526 
 4700000    322.11599   -19107.246   0.01051236   -16997.749    48.385274    33431.101 
 4710000    320.18801   -19170.264 0.0097503812   -17073.394   -364.87938    33271.041 
 4720000    322.60555    -19154.21 0.0099990778   -17041.508   -195.35105    33417.434 
 4730000    317.36491   -19214.863 0.0097042512   -17136.482    952.78506    33174.807 
 4740000    325.40828   -19202.635 0.0098265871   -17071.579    105.29961    33123.853 
 4750000    324.92474   -19260.622 0.0096668193   -17132.733    239.95868    33186.537 
 4760000     319.8107   -19188.981 0.0098843333   -17094.582    560.41654    32988.657 
 4770000    327.75063   -19169.569 0.0097052904   -17023.173   -332.24221     33734.44 
 4780000    321.38692   -19176.489 0.0096739084   -17071.768   -187.31153    33358.917 
 4790000     318.7191   -19214.979 0.0098331514   -17127.728    118.85173    32974.808 
 4800000     315.4762    -19238.59  0.010356717   -17172.577   -391.39461    33151.303 
 4810000    319.57919   -19202.586 0.0096597966   -17109.704   -57.621298    33460.829 
 4820000     315.5182   -19230.799  0.010203474   -17164.511   -268.80479    33449.356 
 4830000    323.62676   -19168.675  0.010157327   -17049.285   -22.481244    33278.573 
 4840000    321.99005   -19242.374  0.010040015   -17133.703    311.44195    33050.498 
 4850000    321.86758   -19090.706  0.010336065   -16982.837   -398.55409     33259.98 
 4860000    326.49817   -19312.434 0.0096793038   -17174.241    226.00042    32926.682 
 4870000    329.26913    -19228.65  0.010802279   -17072.308    259.45401    33311.112 
 4880000     318.5566   -19187.103 0.0099211323   -17100.917    20.142553    33356.879 
 4890000    325.26105   -19160.724 0.0097330817   -17030.632   -202.08612    33430.718 
 4900000     317.7911    -19186.84 0.0096565092   -17105.667   -11.611362    33402.536 
 4910000    331.45983   -19156.864 0.0096785816   -16986.177   -198.95201    33712.194 
 4920000      336.601    -19202.33   0.01017192   -16997.974   -559.00525    33767.328 
 4930000    322.37369   -19162.144 0.0097049184   -17050.961    174.44472    33628.669 
 4940000      330.232   -19278.286 0.0098204065    -17115.64   -387.49526    33569.366 
 4950000    318.00016   -19175.241 0.0096619926   -17092.699   -102.99306    33574.644 
 4960000    333.66377   -19159.535 0.0097474803   -16974.415   -857.61528    34017.687 
 4970000     314.0608   -19182.912 0.0098428838   -17126.168   -26.769756    33509.489 
 4980000    321.86916   -19259.169 0.0097385549    -17151.29    14.321691    33074.379 
 4990000    316.09262   -19215.064 0.0099832295   -17145.014   -137.57057    33354.569 
 5000000    327.21432   -19301.472 0.0097911951   -17158.588    141.05995    33391.499 
Loop time of 7231.64 on 128 procs for 5000000 steps with 3378 atoms

Performance: 59.737 ns/day, 0.402 hours/ns, 691.406 timesteps/s
99.4% CPU use with 128 MPI tasks x no OpenMP threads

MPI task timing breakdown:
Section |  min time  |  avg time  |  max time  |%varavg| %total
---------------------------------------------------------------
Pair    | 1345.2     | 1626.7     | 1892.8     | 324.3 | 22.49
Bond    | 5.6093     | 5.8961     | 6.3102     |   5.1 |  0.08
Kspace  | 2206.4     | 2455.5     | 2715.6     | 255.7 | 33.96
Neigh   | 218.44     | 229.12     | 239.73     |  57.7 |  3.17
Comm    | 581.47     | 653.87     | 732.36     | 139.8 |  9.04
Output  | 0.048668   | 0.04926    | 0.050349   |   0.2 |  0.00
Modify  | 2124.4     | 2173.7     | 2209.4     |  43.1 | 30.06
Other   |            | 86.79      |            |       |  1.20

Nlocal:    26.3906 ave 32 max 18 min
Histogram: 1 4 10 6 19 24 12 32 7 13
Nghost:    3068.45 ave 3089 max 3040 min
Histogram: 3 4 3 16 15 24 27 17 10 9
Neighs:    10413 ave 14236 max 6586 min
Histogram: 4 4 10 25 19 24 26 8 5 3

Total # of neighbors = 1332868
Ave neighs/atom = 394.573
Ave special neighs/atom = 2.12789
Neighbor list builds = 590010
Dangerous builds = 0
PPPM initialization ...
  extracting TIP4P info from pair style
  using 12-bit tables for long-range coulomb (../kspace.cpp:321)
  G vector (1/distance) = 0.314661
  grid = 32 32 32
  stencil order = 5
  estimated absolute RMS force accuracy = 0.0033682
  estimated relative force accuracy = 1.01432e-05
  using double precision FFTs
  3d grid and FFT values/proc = 2475 256
Setting up Verlet run ...
  Unit style    : real
  Current step  : 0
  Time step     : 1
Per MPI rank memory allocation (min/avg/max) = 14.09 | 14.1 | 14.11 Mbytes
Step Temp E_pair E_mol TotEng Press Volume 
       0    327.21432   -19301.472 0.0097911951   -17158.588    740.20727    33391.499 
   10000     325.0594   -19246.856 0.0098262661   -17118.084    190.71231    33427.352 
   20000    326.12362   -19199.637  0.009988866   -17063.896    403.65666    33498.203 
   30000    313.43711   -19217.092  0.010215555   -17164.432    200.32021    33476.406 
   40000    334.69116   -19145.966 0.0099549756   -16954.118    -18.94003    33401.866 
   50000    323.67239   -19266.749 0.0097923535   -17147.061   -384.20807    33668.576 
   60000     321.5469   -19244.668   0.00998226   -17138.899   -290.34753    33632.562 
   70000    321.58499   -19189.653 0.0099250825   -17083.635   -310.55708    33603.177 
   80000    324.63634   -19160.659 0.0099575959   -17034.658   -67.716054    34014.196 
   90000    328.44646   -19253.405   0.01046851   -17102.451    101.78097      33171.2 
  100000    317.16533   -19241.615 0.0098170794    -17164.54   -242.58785    33230.253 
  110000    324.59879   -19130.709  0.010241551   -17004.953    374.84784    33164.042 
  120000    326.89339   -19137.257  0.010168756   -16996.474   -410.61027     33353.34 
  130000    320.94615   -19258.047 0.0099174405   -17156.213    270.74228    33143.128 
  140000    324.44228   -19291.986 0.0099104852   -17167.255    89.864827    33113.564 
  150000     310.5052   -19208.377 0.0098723693   -17174.919    181.95303    32968.182 
  160000    321.73341   -19226.804  0.010573391   -17119.813    541.13225     33382.02 
  170000     332.0853   -19240.069 0.0098166718   -17065.286    318.37857    33669.308 
  180000    323.56569   -19269.882 0.0098858677   -17150.892    638.44495    32937.831 
  190000    310.59335   -19239.769 0.0099346105   -17205.733    531.55677    33223.498 
  200000     314.8431   -19178.747  0.010249416    -17116.88    525.64269    33135.737 
  210000    320.81285   -19199.834 0.0098468133   -17098.873   -1186.0895    33526.831 
  220000    323.12285   -19214.318 0.0097917175   -17098.229   -399.31074    33419.542 
  230000    327.06619   -19151.485 0.0098082104   -17009.571   -149.02648    33625.098 
  240000    308.09888   -19250.443 0.0098608486   -17232.743   -333.15781    33095.675 
  250000    324.50945   -19229.972 0.0098819999   -17104.802    -499.5629    33650.109 
  260000    327.16111   -19228.272 0.0098017725   -17085.737    788.48052    33138.558 
  270000    318.84469   -19117.346  0.010462603   -17029.273    690.91886    33236.536 
  280000    324.16635   -19167.368  0.010119108   -17044.445   -5.7137889    33158.062 
  290000    326.51063   -19239.492 0.0098429374   -17101.217    376.27806      33073.7 
  300000    324.15334   -19199.934 0.0098082066   -17077.096   -275.36838    33218.365 
  310000    317.68328   -19277.093 0.0098867737   -17196.626    68.165692    33152.484 
  320000    323.55447   -19143.869 0.0098573154   -17024.952   -24.498644    33279.528 
  330000     332.7392   -19141.686 0.0099246405    -16962.62     196.8251    33531.262 
  340000    324.50263   -19150.554  0.010103934   -17025.429    858.90985     33418.99 
  350000    328.72702   -19214.492  0.011354117     -17061.7    272.39809    33428.233 
  360000    320.08454   -19165.193 0.0099542182   -17069.001   -107.71762     33581.04 
  370000    327.68519   -19269.605 0.0098629213   -17123.638   -1079.6838    33229.677 
  380000    324.83616   -19248.979 0.0097913422   -17121.669    133.40178    33456.819 
  390000    321.50873   -19175.593  0.010253045   -17070.074   -182.95762    33288.066 
  400000    317.78854    -19138.56 0.0098357309   -17057.404    378.63399    33476.601 
  410000    321.71872    -19183.53 0.0099928946   -17076.635    506.17444    33544.048 
  420000     326.1124   -19167.235 0.0099952721   -17031.567   -517.68095    33735.749 
  430000    323.39574   -19177.636 0.0097981571   -17059.759   -663.66541    33528.329 
  440000     325.5937   -19244.398  0.011752879   -17112.126   -226.09318    33369.434 
  450000    315.25209   -19158.582 0.0097933645   -17094.037     160.0561    33542.336 
  460000    321.07235    -19364.91 0.0098834769   -17262.248    -478.5807    33198.095 
  470000    317.56291   -19223.859 0.0097915929   -17144.181    20.866298    33620.552 
  480000    320.71138   -19186.554  0.011483061   -17086.255   -107.56236    33125.915 
  490000    331.20669   -19210.843 0.0099823294   -17041.814    411.98733    33047.511 
  500000    325.48986   -19108.809  0.009862492   -16977.218  0.093566446    33781.382 
  510000    327.02926    -19116.03  0.010385432   -16974.357    163.63006    33697.755 
  520000    327.46444   -19182.065 0.0097918262   -17037.544    813.56822     33193.06 
  530000    322.11659    -19240.22  0.010555271   -17130.719   -739.00984    33498.462 
  540000    326.02023   -19189.544  0.010441913    -17054.48   -126.68414    33370.386 
  550000    323.52371   -19301.662 0.0098006817   -17182.947   -605.40008    33350.881 
  560000    318.55129   -19254.097 0.0098013212   -17167.946    114.15406    33630.736 
  570000    321.08713   -19162.964 0.0097995538   -17060.206   -276.93725    33506.995 
  580000    313.19673   -19269.502  0.010346863   -17218.416   -383.51347    33409.522 
  590000    323.60796    -19253.42  0.010803133   -17134.153    207.16629    32963.548 
  600000    320.97074   -19205.038  0.010805962   -17103.041    36.376845    33209.119 
  610000    316.46297   -19202.324  0.010147407   -17129.849    402.68192    33689.579 
  620000    311.29842   -19261.628 0.0097928643   -17222.974   -653.12469    33620.181 
  630000     309.7903   -19151.373 0.0098128585   -17122.596   -146.17103    33510.808 
  640000    320.84987   -19179.376 0.0098796292   -17078.171   -465.52793    33141.755 
  650000    322.65742   -19190.228   0.01242925   -17077.184   -61.020079    33862.621 
  660000    327.54851   -19172.599  0.011378047   -17027.525    466.79469    33264.212 
  670000    329.22695   -19210.391  0.011274909   -17054.325    355.23641    33348.208 
  680000    327.98232    -19331.77  0.010408083   -17183.856    455.30927    33208.568 
  690000    325.60682   -19185.095   0.01002226   -17052.738   -48.084043    33097.175 
  700000    329.29056    -19127.77 0.0098246452   -16971.289   -21.951586     33752.62 
  710000    315.78625   -19293.728 0.0097930443   -17225.685    290.51035    33466.135 
  720000    323.73795   -19216.017 0.0098150553     -17095.9   -110.27351    33504.051 
  730000    319.81427   -19281.559 0.0098036079   -17187.137   -811.79715     33184.46 
  740000    321.49103   -19274.072  0.011484334   -17168.667    621.74789    32959.812 
  750000    315.51756   -19188.317  0.010201353   -17122.032   -495.02926    33427.292 
  760000    316.34322   -19220.148 0.0097917634   -17148.457    766.23857    33270.377 
  770000    312.40052   -19254.748 0.0098081568   -17208.877   -24.291386      33517.4 
  780000    326.79473    -19159.63  0.010391439   -17019.493   -766.25936    33365.431 
  790000    317.84419   -19311.308  0.010105463   -17229.787    465.77029    33292.633 
  800000    321.35956   -19148.173  0.009886928   -17043.631    196.41393     33524.27 
  810000    324.22488   -19208.876 0.0098018928   -17085.569    491.70115    32978.429 
  820000    317.86391   -19232.062 0.0098112527   -17150.412     84.24021    33038.935 
  830000    328.06126   -19273.724  0.010077186   -17125.294   -231.32975    33467.312 
  840000     325.6088   -19143.708  0.010740945   -17011.337   -143.87937    33389.268 
  850000    328.60771   -19217.449  0.010319497    -17065.44   -21.156056    33413.616 
  860000    323.17336   -19210.135  0.009986487   -17093.715   -212.51738     33471.51 
  870000    319.41748   -19179.569 0.0099155367   -17087.745   -438.74134    33971.255 
  880000    319.76189   -19122.881 0.0098112704   -17028.802   -459.32655    33646.533 
  890000    324.97816   -19258.555 0.0097954873   -17130.315    122.49555    33500.067 
  900000    320.89351   -19127.305 0.0098122867   -17025.815   -301.28266    33519.434 
  910000    318.91658   -19150.088  0.010090307   -17061.545   -241.28777      33881.8 
  920000    325.36631   -19273.764 0.0098696574   -17142.983     234.1763     33291.09 
  930000      331.667   -19203.381  0.010646647   -17031.336    271.31055    33409.887 
  940000    326.36648   -19164.172  0.010169568   -17026.841   -830.02688    33763.819 
  950000    324.12666    -19186.55  0.009817266   -17063.887   -290.96475    33786.168 
  960000    324.40155   -19238.512 0.0098455856   -17114.048    915.87215    33161.769 
  970000     325.8453   -19286.256  0.010121945   -17152.338   -1029.9204    33288.817 
  980000    324.58074    -19226.62 0.0099113341   -17100.983   -245.66368    33444.369 
  990000    318.34534   -19358.965  0.010502803   -17274.162    120.09488    32714.605 
 1000000    332.46327   -19248.186 0.0098041229   -17070.928    266.43408    33294.589 
 1010000     324.1972   -19277.833  0.010081687   -17154.707    397.57454    33713.459 
 1020000    313.00933   -19243.544 0.0098383062   -17193.687   -1271.8384    33331.539 
 1030000    323.24733   -19265.271 0.0098126358   -17148.367   -219.68358    33152.639 
 1040000    321.22464   -19158.381  0.010168189   -17054.723    493.04333    32976.254 
 1050000    304.41157   -19203.466  0.010147546   -17209.913    1256.7484    33098.459 
 1060000     330.0884   -19254.077 0.0098708842   -17092.371    477.91991    32922.962 
 1070000    320.30153   -19149.226 0.0097910165   -17051.613   -247.29013    33358.134 
 1080000    319.50249   -19258.904  0.010329533   -17166.523   -250.57519    33398.317 
 1090000    311.42702   -19183.166  0.010172647   -17143.671    226.93904    33247.748 
 1100000    316.18486   -19262.302 0.0098092007   -17191.648   -291.14956    33261.902 
 1110000    323.82274   -19265.767  0.010189671   -17145.094   -51.741092     33401.38 
 1120000    321.60282   -19229.182 0.0099045862   -17123.046   -39.061482     33312.89 
 1130000    314.27211   -19243.783  0.009812978   -17185.655    147.38586    32951.795 
 1140000    322.67312   -19189.886  0.010234041   -17076.742    584.23091    33196.021 
 1150000    317.94682   -19202.317 0.0098116264   -17120.125    227.35735    33179.459 
 1160000    330.10102   -19302.956  0.010283852   -17141.167   -337.74615    33108.888 
 1170000    323.71364   -19197.008  0.010026016    -17077.05    20.364074    33244.775 
 1180000    318.38129   -19343.708  0.010068902    -17258.67   -636.71403    33737.578 
 1190000    319.48825   -19178.563   0.01001569   -17086.276   -560.85728    33562.393 
 1200000    327.00384   -19175.435 0.0099317034   -17033.929    53.438418    33592.565 
 1210000    321.92433   -19298.578 0.0098020681   -17190.337    99.488229    33140.384 
 1220000    321.86928   -19257.408  0.010062134   -17149.528   -326.15807     33267.61 
 1230000    324.97525   -19137.266 0.0099406852   -17009.045    78.583351    33471.042 
 1240000    324.52415   -19192.902  0.010418783   -17067.635    211.16372    33534.856 
 1250000     323.6407   -19176.166 0.0099529662   -17056.685   -129.09305    33549.722 
 1260000    330.03194   -19186.323 0.0097948197   -17024.987    370.49311    33300.251 
 1270000    320.69307   -19199.325 0.0098060083   -17099.148    178.01497    33190.778 
 1280000    328.59214    -19197.07  0.010410261   -17045.162     127.1738    33540.884 
 1290000    309.64498   -19220.277   0.01019757   -17192.451   -249.63589    33554.805 
 1300000    326.27969   -19300.561 0.0098494604   -17163.798    177.74893    33063.092 
 1310000    326.59935   -19183.612 0.0099133503   -17044.755   -155.37767    33254.232 
 1320000    327.51875   -19129.475  0.010735869   -16984.597   -516.44315    33703.135 
 1330000    319.83595   -19216.653  0.010294366   -17122.089    581.66596    33434.456 
 1340000    319.99028   -19190.862  0.010405522   -17095.286   -630.27832    33310.945 
 1350000    327.21855   -19218.188 0.0098757779   -17075.276   -551.87521    33442.405 
 1360000     317.6034   -19218.115 0.0098969951   -17138.171   -485.69214    33648.036 
 1370000    327.85822   -19229.353  0.010774726   -17082.251    721.82225    33251.524 
 1380000    337.14111   -19254.544   0.01098066    -17046.65    363.26988    32860.462 
 1390000    322.93094   -19113.678 0.0098022466   -16998.845    389.11465    33487.441 
 1400000    318.63655   -19195.654 0.0097942702   -17108.945   -539.06252    33887.613 
 1410000    321.21492   -19241.756  0.009814593   -17138.161   -88.355261    33372.704 
 1420000    324.54859   -19190.872 0.0099121593   -17065.446   -163.32954    33561.298 
 1430000    331.85031   -19118.755 0.0097956944   -16945.511      71.6528    33627.335 
 1440000    317.48834    -19206.43 0.0098099091    -17127.24    31.608493    33319.719 
 1450000    315.45053     -19166.5  0.010165476   -17100.655   -290.56979    33436.475 
 1460000    325.38113   -19224.769 0.0099416365    -17093.89    381.53784     33136.91 
 1470000     310.4118   -19280.047   0.01066419     -17247.2    1045.7156    32889.737 
 1480000     326.6502   -19161.327 0.0098578221   -17022.137     369.8772    33659.551 
 1490000    327.11485   -19193.796 0.0098222806   -17051.563   -302.21981    33482.547 
 1500000    328.70757   -19231.789 0.0098499979   -17079.126    340.67532    33199.872 
 1510000    321.87293   -19321.305 0.0099988661   -17213.401    292.57954    33019.944 
 1520000      318.539   -19194.324 0.0097954675   -17108.253    2.3181254    33388.541 
 1530000    316.05601   -19194.544  0.010261716   -17124.734   -299.04562     33166.22 
 1540000    319.00243   -19220.485  0.010412976   -17131.379   -943.75457    33440.287 
 1550000    324.67412   -19236.413 0.0097915654   -17110.164   -27.629285    33056.919 
 1560000    322.93165   -19210.399 0.0097972562   -17095.562    1048.7371    33109.794 
 1570000    330.73751   -19268.911 0.0099429733   -17102.954   -51.568252     33271.91 
 1580000    323.65691   -19245.891  0.010404959   -17126.303   -23.065195    32872.082 
 1590000    319.87217   -19197.782   0.00979779    -17102.98    301.91134    33074.851 
 1600000    329.21064   -19083.814  0.010551435   -16927.856   -71.055572    33235.875 
 1610000     321.3204    -19325.33  0.010645298   -17221.043    414.24468    33382.724 
 1620000    324.35329   -19257.037   0.01051501   -17132.889    634.81957    33003.325 
 1630000    322.39043   -19170.661 0.0098756985   -17059.368   -654.05262     33422.48 
 1640000    325.97842   -19213.771 0.0098186542   -17078.981    536.55879    32977.383 
 1650000    320.66174   -19128.243 0.0098123613   -17028.271    469.10559    33780.488 
 1660000    322.94548    -19255.57 0.0097911847   -17140.642   -689.13849    33085.071 
 1670000    321.48075   -19158.006 0.0097972776   -17052.671    47.485424    33435.144 
 1680000    322.16473   -19215.021 0.0098024372   -17105.206    236.02835    32991.902 
 1690000    329.43535   -19252.346  0.009816705   -17094.917   -318.40396    33517.585 
 1700000    326.94917   -19230.375   0.01020942   -17089.227    231.93169    33298.544 
 1710000    319.45673   -19205.335  0.010519231   -17113.253   -302.60013     33720.94 
 1720000    323.22449   -19223.417  0.010395284   -17106.661    157.25215    33554.103 
 1730000    319.15694   -19280.918 0.0098919058   -17190.801    745.31445    33311.685 
 1740000    320.20983   -19179.847 0.0097865934   -17082.835   -903.68051    33360.971 
 1750000    322.11317   -19237.584  0.010284593   -17128.106   -368.29323     33553.97 
 1760000    323.47067    -19265.33 0.0098317146   -17146.962   -85.134005    33170.322 
 1770000    327.55266   -19209.142  0.010045232   -17064.042    551.49487    33188.826 
 1780000    320.38002   -19145.622  0.010307737   -17047.495    -226.0167    33500.225 
 1790000    326.73357   -19206.289  0.009910836   -17066.553   -596.83071    33288.281 
 1800000    314.02453   -19223.924 0.0098056024   -17167.417   -326.57927    33423.228 
 1810000    341.04548   -19112.633 0.0098132378   -16879.171    34.448563    33710.073 
 1820000    326.11259   -19176.695  0.010037638   -17041.026    479.82275    33274.392 
 1830000    320.47293   -19176.961  0.010218451   -17078.224    -986.1483    33769.144 
 1840000    322.02498   -19255.937  0.010405648   -17147.037   -30.496418    33201.249 
 1850000    328.12021   -19164.465 0.0098988684   -17015.648    521.14088    33007.263 
 1860000    321.79452   -19195.825 0.0098901245   -17088.434    164.82653     33116.09 
 1870000    318.71194   -19214.726   0.01017588   -17127.523    379.40513    33233.194 
 1880000    313.46099   -19210.742 0.0098267498   -17157.926     1035.871    33208.217 
 1890000    320.84346   -19094.044  0.010243293   -16992.881   -613.81538    33442.345 
 1900000    328.84412   -19229.032  0.010072373   -17075.474    432.54115    33058.854 
 1910000    328.14168   -19155.289 0.0098293189   -17006.332   -23.031202    33066.658 
 1920000    323.77008   -19212.987 0.0098800651   -17092.658   -26.329148    33447.703 
 1930000    317.90401   -19312.341 0.0099383754   -17230.429   -310.64201    33562.518 
 1940000    324.85065   -19217.755  0.009908373   -17090.351    -345.3948    33319.214 
 1950000    325.59469   -19226.438 0.0098890706   -17094.161   -117.00681    33330.234 
 1960000    317.86546   -19267.574  0.010043729   -17185.914    1402.5045    32880.836 
 1970000    316.62212   -19202.838  0.010164491    -17129.32   -366.30596    33067.759 
 1980000    317.51314   -19201.682  0.011427659   -17122.328   -434.13376    33781.219 
 1990000    319.83496   -19292.143  0.010200378   -17197.585    189.15064     33343.73 
 2000000    327.81604   -19156.534  0.011196144   -17009.708   -885.25918    33726.819 
 2010000    317.08194   -19188.782 0.0098282843   -17112.253    870.33114    32963.097 
 2020000    312.68665   -19198.761  0.010028932   -17151.016    312.32816    33241.434 
 2030000    329.56559   -19255.636  0.010656437   -17097.354    204.54462     33282.85 
 2040000    316.00178   -19179.913  0.010345139   -17110.457    130.24643    33211.472 
 2050000    328.99737   -19271.864  0.009915825   -17117.303    202.71074    33148.739 
 2060000    320.97356   -19221.213 0.0098085516   -17119.199   -488.12529    33071.755 
 2070000    321.46283   -19179.525  0.010381704   -17074.306   -476.19736    33210.569 
 2080000    325.22001   -19214.707 0.0098013674   -17084.884   -302.24106    33104.378 
 2090000    329.35014   -19143.081 0.0098142049    -16986.21   -32.046441    33390.701 
 2100000    319.55241   -19179.756 0.0097987621   -17087.048    119.79908    33015.028 
 2110000    326.03478   -19118.367 0.0098039536   -16983.208    126.08934    33614.432 
 2120000    306.82253   -19213.925  0.010058939   -17204.583    681.81095    33009.421 
 2130000    323.83398   -19239.208 0.0099939345   -17118.461    442.16488    33086.959 
 2140000    315.09405   -19205.162 0.0098643449   -17141.652    102.26135    33264.294 
 2150000    326.95596   -19231.291 0.0098839635   -17090.099    750.68239    32924.353 
 2160000    323.64629   -19222.749 0.0098870464   -17103.231    264.12105    33324.396 
 2170000    320.28713   -19299.209   0.01061896   -17201.689    1125.5798    32996.231 
 2180000    326.21856   -19215.629 0.0098223182   -17079.266    441.57494    33248.603 
 2190000    326.17681   -19126.379 0.0098175023   -16990.289   -687.38357    33868.923 
 2200000    320.18508   -19174.149 0.0097925274   -17077.298   -29.803895    33960.235 
 2210000    314.34591   -19163.879  0.010135725   -17105.268   -1056.0669    33643.738 
 2220000    322.91367    -19250.26 0.0098289083    -17135.54    454.26271    33501.385 
 2230000    317.24729   -19194.408 0.0097948678   -17116.796    1117.4409    33080.782 
 2240000      328.427   -19138.564 0.0098251749   -16987.738   -174.52566    33429.986 
 2250000    316.46968   -19212.724 0.0098221709   -17140.205    26.944458    33218.726 
 2260000    328.28614   -19250.731  0.010092566   -17100.827   -181.58001    33295.884 
 2270000    318.57122   -19319.003 0.0097899807   -17232.722   -282.26663     33081.17 
 2280000     330.5189   -19226.074  0.010264883   -17061.549   -344.99702    33433.543 
 2290000    327.73169   -19249.185 0.0098645287   -17102.913    695.52679    33396.978 
 2300000    323.65742   -19327.392  0.010693099   -17207.801    358.98031    32983.208 
 2310000    324.73675   -19173.473 0.0098265864   -17046.814   -1016.2092    33823.037 
 2320000    325.69416   -19194.846 0.0098705324   -17061.917     667.6995    33478.377 
 2330000    319.45778   -19234.471  0.010104727   -17142.383    796.17915    33130.219 
 2340000    324.68334   -19247.406 0.0099321179   -17121.097    -221.7989    33092.665 
 2350000    324.81017   -19200.693  0.010135982   -17073.553   -760.47261    33342.512 
 2360000    321.05287   -19104.427 0.0099696848   -17001.893       91.698    33496.919 
 2370000    320.47291   -19256.786  0.010252967    -17158.05    698.15011    32938.462 
 2380000    317.13538   -19102.729 0.0098157061    -17025.85    1272.1366    32997.102 
 2390000    321.53744   -19291.713  0.010136775   -17186.005    1161.8337    33366.995 
 2400000    319.40177    -19059.07 0.0098077649    -16967.35     624.8846    33373.326 
 2410000    324.50702   -19323.212 0.0098128094   -17198.058    10.777029    33337.533 
 2420000     312.7743   -19178.704  0.010309106   -17130.385   -181.60865    33476.379 
 2430000    322.11578   -19354.141   0.00994543   -17244.647   -430.87097    33400.298 
 2440000    323.78528   -19235.151 0.0098041682   -17114.724    409.22572    33018.743 
 2450000    313.48758   -19168.788 0.0097911564   -17115.798   -673.57803     33313.04 
 2460000    316.70017   -19192.334  0.010073932   -17118.305   -697.86838    33288.567 
 2470000    324.64806   -19161.196 0.0098457429   -17035.118   -575.51843     33489.69 
 2480000    329.09205   -19154.136 0.0098647075   -16998.955   -168.58217    33638.795 
[...]
18200000    321.00285    322.08253    59.418307   -51.330601   -18602.689    2102.1962   -16500.493 
18210000    325.28498    322.74173    161.47446    89.621014   -18767.944    2130.2392   -16637.704 
18220000    324.63601    322.62651    241.55979    61.458327    -18649.76    2125.9892   -16523.771 
18230000     324.8372    322.56154    -402.2247    68.990027     -18697.3    2127.3068   -16569.993 
18240000    327.52491    322.21508    842.97099    53.021727   -18769.592    2144.9081   -16624.684 
18250000    321.89618    323.30841   -122.03939    251.26181   -18749.752    2108.0465   -16641.705 
18260000    320.26373    322.69889    50.780765    78.821399    -18670.65    2097.3559   -16573.294 
18270000    313.54386    322.59554    179.26192    50.618465   -18745.626    2053.3485   -16692.277 
18280000    328.82289    322.32487    395.70943    203.00481   -18719.791    2153.4084   -16566.382 
18290000     320.4898    322.85495   -560.40795    20.640616   -18734.607    2098.8363    -16635.77 
18300000    318.61869    322.43266   -297.52799    52.154217    -18694.14    2086.5827   -16607.557 
18310000    321.78477    322.34365   -295.86788    28.219008   -18686.784    2107.3169   -16579.467 
18320000    321.19135    321.89344    -757.9024    147.20491   -18699.577    2103.4307   -16596.146 
18330000    320.52026    321.78322    83.217005    57.015221   -18678.244    2099.0358   -16579.208 
18340000    325.90456    322.42511   -207.92164    -108.6795   -18736.323    2134.2967   -16602.026 
18350000    328.89351    323.11681    246.05987    175.62131   -18637.401    2153.8709    -16483.53 
18360000     317.9465    322.64018    101.64026    72.135017   -18741.397    2082.1806   -16659.216 
18370000    321.69429    321.61733      218.814   -19.255868   -18661.059    2106.7243   -16554.335 
18380000    317.39783    323.10532   -152.19762    138.99865   -18677.635    2078.5875   -16599.048 
18390000    319.45201    322.90571    214.70116     138.6168   -18755.851      2092.04   -16663.811 
18400000    306.51293     322.1265   -125.46756    145.16597   -18775.665    2007.3041   -16768.361 
18410000    322.93053    322.31076      28.8702    16.298611   -18693.707    2114.8203   -16578.887 
18420000    330.61376    322.97853   -252.55385    188.56142   -18695.999    2165.1365   -16530.863 
18430000     317.5834     323.3685   -342.81877   -23.065739   -18712.023    2079.8028    -16632.22 
18440000    317.06818    323.06572    -107.1589    10.263853   -18746.699    2076.4287    -16670.27 
18450000    323.29286    321.77825   -66.357224     54.60033   -18633.207    2117.1931   -16516.014 
18460000    327.40864     322.4407    1077.6747    17.322923   -18771.424    2144.1467   -16627.277 
18470000    324.93946    322.36157   -330.39174    122.39606   -18700.506    2127.9764   -16572.529 
18480000    315.58113    322.08685   -241.61156    38.607252   -18629.912    2066.6902   -16563.222 
18490000    317.41015    322.00281    394.07928     56.21907    -18638.81    2078.6682   -16560.142 
18500000    324.08103    322.44334   -191.97806    86.899921   -18730.977    2122.3547   -16608.622 
18510000    316.87685      322.687    23.393222    170.76484   -18677.498    2075.1757   -16602.322 
18520000    331.67443    322.14514    75.489011    191.97228    -18686.34    2172.0827   -16514.257 
18530000    320.43343    322.51924   -519.48363    56.593304   -18610.406    2098.4672   -16511.939 
18540000    318.04024    322.43438    821.03001    64.361557   -18693.053    2082.7945   -16610.258 
18550000    309.66838    322.20662   -243.03607    43.833566   -18731.332    2027.9685   -16703.363 
18560000    314.04818     322.5575    462.66085    22.553625   -18701.788    2056.6512   -16645.136 
18570000     322.2348    321.82375    782.46915   -23.714851   -18596.137     2110.264   -16485.873 
18580000    331.21509    321.89716    45.472542    77.211649   -18641.096    2169.0745   -16472.022 
18590000     323.1565     322.4078   -225.13223    10.961181   -18663.341    2116.3001   -16547.041 
18600000    321.64229    322.77583    -37.22468    40.235772   -18787.393    2106.3838   -16681.009 
18610000    326.07143    323.19225   -31.342143    63.203787   -18727.385    2135.3895   -16591.995 
18620000    321.89802    322.54375    175.45576    53.516722   -18599.885    2108.0585   -16491.827 
18630000    319.27845    322.65383    1213.4645    171.17577   -18605.575    2090.9034   -16514.671 
18640000    335.36207    322.76762    919.83383    125.88876   -18661.356    2196.2325   -16465.124 
18650000    325.69124    322.62043    315.73056    82.788668   -18607.548    2132.8997   -16474.648 
18660000     318.7883    321.98976    1090.6023    112.81915   -18684.849    2087.6935   -16597.155 
18670000    328.46459    322.39751    785.63178     147.5242   -18617.473     2151.062   -16466.411 
18680000    326.55716    322.70541    528.17859   -11.493506   -18662.498    2138.5705   -16523.927 
18690000    313.90029    322.71211    739.31537    133.01069   -18703.408    2055.6827   -16647.725 
18700000    327.06852    322.98524    1049.1013    192.95952   -18738.215    2141.9193   -16596.296 
18710000    317.80602    322.80685    66.308858    164.25285   -18670.674    2081.2607   -16589.413 
18720000    319.14459     321.5193    530.34667    39.386116   -18636.877    2090.0268   -16546.851 
18730000    323.64238    323.02944     141.8113    14.328777   -18714.756     2119.482   -16595.274 
18740000    325.06919    322.86873    676.13763     75.92321   -18757.814     2128.826   -16628.988 
18750000    330.03823     322.6452    195.83577     29.25387   -18605.816    2161.3674   -16444.448 
18760000    310.53859    322.52971   -65.943246    253.12171   -18656.159    2033.6675   -16622.491 
18770000     331.6275    322.93072    117.59285    189.83164   -18656.312    2171.7753   -16484.537 
18780000    315.73283    322.46206    414.27089    169.17269   -18659.574    2067.6837    -16591.89 
18790000    319.50581    322.49717    104.51252    159.46043   -18774.201    2092.3923   -16681.808 
18800000    324.69487    322.71391    186.49355    122.08662   -18703.665    2126.3747    -16577.29 
18810000    325.81644    322.57167   -452.38215   -35.677391   -18669.511    2133.7196   -16535.791 
18820000    324.28881    323.62661   -174.93077    31.630283    -18810.89    2123.7154   -16687.175 
18830000    325.23574    322.96148    292.58138    103.30455   -18686.653    2129.9167   -16556.736 
18840000    330.16361    322.18771     -82.5875     90.70383   -18689.713    2162.1885   -16527.524 
18850000    324.77786    322.37307    596.07025    57.338109   -18684.923    2126.9182   -16558.005 
18860000    328.69758     321.7565    103.13272    108.89198   -18782.627    2152.5877    -16630.04 
18870000    329.51701    322.51633    464.99218    11.017572   -18642.761    2157.9541   -16484.807 
18880000    320.93965    322.13632    627.22436     120.4098   -18622.657    2101.7823   -16520.875 
18890000    320.16622    322.82319    100.51652     44.78745   -18570.545    2096.7173   -16473.828 
18900000    324.13182     323.0324    -386.2266     9.243744   -18734.764    2122.6873   -16612.077 
18910000    333.91676    322.46031   -142.61228    27.621074   -18769.331    2186.7673   -16582.564 
18920000    316.65601    323.23745    504.02243    195.72894   -18716.491    2073.7295   -16642.761 
18930000    317.47043    323.20892   -534.02785    32.946437   -18684.894     2079.063   -16605.831 
18940000    329.98335    322.99572    115.74159   -63.672154   -18794.274     2161.008   -16633.266 
18950000    318.97119    322.20056    139.73191    70.169207    -18669.48    2088.8912   -16580.589 
18960000    330.57717    323.23929    494.54982    55.770877   -18706.287    2164.8969    -16541.39 
18970000    326.56305    322.12051    790.79006    0.4852282   -18741.014    2138.6091   -16602.405 
18980000    324.73777     322.6803   -263.99823    93.426284   -18663.054    2126.6556   -16536.398 
18990000    323.60303    322.58415   -46.550137    46.429299   -18644.676    2119.2243   -16525.451 
19000000    314.09511    322.59279    532.42105   -33.974849    -18682.78    2056.9585   -16625.822 
19010000     325.6269    322.81598   -686.26742    155.77818   -18834.341    2132.4783   -16701.863 
19020000    317.72506     322.6634    -156.6009     57.25862    -18717.91    2080.7305   -16637.179 
19030000    318.62428    322.52948    43.681092   -2.5116962   -18698.193    2086.6193   -16611.574 
19040000    327.11441    322.48683    339.61786   -49.669994   -18684.447    2142.2199   -16542.228 
19050000    324.57809    322.63293   -583.20465    146.22744   -18708.955    2125.6099   -16583.345 
19060000     320.2949    322.37572    50.656646     117.1239   -18592.983      2097.56   -16495.423 
19070000    317.61967    322.15313   -143.07895    52.536527   -18722.764    2080.0403   -16642.724 
19080000    320.07738    322.76719    176.63878    -23.87606   -18647.373    2096.1354   -16551.237 
19090000    323.32369    322.69063    856.91959    125.25292   -18586.766     2117.395   -16469.371 
19100000     324.7991    322.65958   -337.71005    139.90313   -18820.031    2127.0572   -16692.974 
19110000    326.73808    322.32622    429.71797   -26.629633   -18633.494    2139.7553   -16493.739 
19120000    316.94671    322.43808    56.594185    33.608458   -18738.943    2075.6332    -16663.31 
19130000     323.4911    322.82155   -421.73605    7.4980197   -18741.585    2118.4913   -16623.094 
19140000      317.559    322.21276    603.49434   0.97490563   -18722.477     2079.643   -16642.834 
19150000    329.56985    322.49456    490.45739    158.92293   -18629.151    2158.3001   -16470.851 
19160000      330.631    322.59997   -505.64371    53.928845    -18690.72    2165.2494   -16525.471 
19170000    317.77669    322.96822   -144.98912    162.52759    -18628.35    2081.0686   -16547.281 
19180000    325.52827    321.66628    184.84118    28.486217   -18729.544    2131.8325   -16597.711 
19190000    312.38199    323.11531   -431.69415   -52.267383   -18628.593    2045.7395   -16582.853 
19200000    313.78051     322.4627    131.30352    107.09537   -18667.351    2054.8982   -16612.453 
19210000    323.57238    322.02945    262.69536   -75.993313   -18669.673    2119.0236   -16550.649 
19220000    321.01693    322.17696    369.18947   -12.425967   -18688.597    2102.2884   -16586.308 
19230000    330.27706     322.1164    65.475298    56.599948   -18726.769    2162.9315   -16563.837 
19240000    323.67791    322.66925   -35.673262     -8.72007   -18766.653    2119.7147   -16646.939 
19250000    318.74309    322.08976   -796.24742   -46.361674    -18667.82    2087.3974   -16580.423 
19260000    330.77388    322.96225   -78.280794    32.119907   -18712.611    2166.1851   -16546.426 
19270000    317.08329    322.96469    -754.3049    164.09526   -18670.246    2076.5276   -16593.718 
19280000    324.36366    323.59963    963.54688     24.96431   -18651.333    2124.2056   -16527.128 
19290000    327.83726    323.23793   -83.557561    111.86794   -18639.433    2146.9537    -16492.48 
19300000    323.14972    322.60919   -230.71449   -10.437064   -18699.697    2116.2557   -16583.441 
19310000    322.26799    322.55532    740.27173    110.64108   -18581.599    2110.4814   -16471.118 
19320000    320.41715    322.76612      192.862    50.194401   -18691.987    2098.3606   -16593.627 
19330000    328.73233    323.02441    993.27205    45.257601   -18690.697    2152.8153   -16537.882 
19340000    321.14104    322.42237   -137.47294    186.35375   -18715.346    2103.1012   -16612.245 
19350000    328.54935    321.95658   -187.51099    74.719507   -18789.663    2151.6171   -16638.046 
19360000    317.86672    322.69202   -528.01734    70.725909   -18690.794    2081.6582   -16609.136 
19370000    327.60225     323.3173    414.75166    73.935121   -18657.871    2145.4146   -16512.457 
19380000    327.26483    322.37318    851.91638    115.41381   -18813.093    2143.2049   -16669.888 
19390000    312.52506    322.34989     289.9656    166.40641   -18624.057    2046.6765   -16577.381 
19400000    328.70563    322.12057    59.835686    -3.551111    -18720.01    2152.6404    -16567.37 
19410000    316.36711    322.93524   -606.56765    80.213318   -18622.222    2071.8375   -16550.385 
19420000    322.79994    323.24086   -106.66706    25.431496    -18712.92     2113.965   -16598.955 
19430000    310.18309      322.458    425.48365   -50.817096   -18654.438    2031.3393   -16623.099 
19440000    338.08494    322.71756   -110.83208    69.944806   -18690.969    2214.0641   -16476.905 
19450000    321.00627    322.56397    238.29704    7.5630596   -18634.704    2102.2186   -16532.485 
19460000     326.8884    322.34716   -415.21212    58.270188    -18796.27    2140.7397   -16655.531 
19470000    324.05144    323.30014   -397.91761    104.00529   -18719.478    2122.1609   -16597.317 
19480000    319.42486    322.34475    380.59855    91.296751   -18708.548    2091.8622   -16616.685 
19490000    325.05883    322.50671    352.08876    182.21836   -18620.688    2128.7582    -16491.93 
19500000    336.09756    322.61615   -942.90323   -38.504019   -18764.151     2201.049   -16563.102 
19510000    319.94852    322.25052   -312.82364     -12.5693   -18686.132    2095.2916    -16590.84 
19520000    332.02758    322.15517    593.10872    122.84397   -18707.619    2174.3954   -16533.224 
19530000    322.00144    322.44737   -96.034265    49.411432   -18744.354    2108.7358   -16635.618 
19540000    316.12006    322.97765   -301.37501    123.94374   -18643.748    2070.2196   -16573.529 
19550000    324.59597     322.3826    162.16491    167.52825   -18719.707     2125.727    -16593.98 
19560000    320.84435    323.08805   -616.93656    107.05771   -18639.572    2101.1582   -16538.414 
19570000    324.32068    322.31626    381.23972    35.786439   -18656.365    2123.9242   -16532.441 
19580000    335.05614     322.7191   -747.71792    104.89028   -18613.995     2194.229   -16419.766 
19590000    325.88914     323.2192     100.8045   -78.670856   -18671.832    2134.1957   -16537.636 
19600000    316.59033    322.19796   -839.56962    -33.95234   -18688.638    2073.2993   -16615.339 
19610000    323.99474    322.92465    -28.77122   -1.2226539   -18751.533    2121.7896   -16629.743 
19620000    324.67642    322.60613    521.41801    64.525566   -18726.234    2126.2538    -16599.98 
19630000    312.74619    322.32016   -104.01211      2.30201   -18661.448    2048.1247   -16613.323 
19640000     316.9528    322.48945    8.8338973    93.213104   -18645.825    2075.6731   -16570.152 
19650000    323.64027    322.19281   -381.71315   -30.621759   -18644.602    2119.4682   -16525.133 
19660000    326.79053    322.19535   -520.44611   -17.233792    -18679.74    2140.0988   -16539.641 
19670000    328.38649    322.49081   -426.66468    40.009705   -18665.478    2150.5505   -16514.928 
19680000    318.33682    322.15164    468.75965   -21.743229   -18642.606    2084.7368   -16557.869 
19690000    324.13916    322.77884    51.327931    81.206572   -18751.918    2122.7354   -16629.182 
19700000    320.71806    321.99065    245.94787    139.56274   -18664.078    2100.3311   -16563.746 
19710000    325.88533    322.53092   -512.08366    78.161983    -18820.83    2134.1708   -16686.659 
19720000    302.21196     323.2493    158.66297    188.71476   -18702.805    1979.1377   -16723.668 
19730000    322.16256     323.1046   -193.60768     118.7809   -18663.954     2109.791   -16554.163 
19740000    319.61323    322.47479    848.71875    19.958879   -18746.937    2093.0958   -16653.841 
19750000    320.32443     321.9028    377.75994   0.62672847   -18847.443    2097.7533    -16749.69 
19760000    325.13133    322.13128    548.99802    282.58167   -18683.379     2129.233   -16554.146 
19770000    322.81308    322.88159    655.26456    72.624149   -18603.138    2114.0511   -16489.087 
19780000    325.22982    322.05683    389.46068    29.028047   -18642.135     2129.878   -16512.257 
19790000    326.53586    322.03574   -699.05484    62.070561   -18648.996     2138.431   -16510.565 
19800000    324.01828     322.0018    344.99303    107.71727   -18760.669    2121.9437   -16638.725 
19810000    323.38672     321.9974    750.17108    105.30359   -18671.095    2117.8078   -16553.287 
19820000     326.8817    322.81027    144.56181    27.141467   -18652.384    2140.6958   -16511.688 
19830000    322.74294    323.30535    294.33413    184.61837   -18633.891    2113.5917   -16520.299 
19840000    318.93585     322.9247   -247.82854   -59.952296   -18654.237    2088.6598   -16565.578 
19850000    318.54124    323.50969    278.05729    30.981511   -18678.625    2086.0755   -16592.549 
19860000     316.2623    322.30659   -318.45631    45.253094    -18720.16    2071.1511   -16649.009 
19870000     315.8567    322.35896    -81.65359    36.418682    -18778.68    2068.4949   -16710.186 
19880000    327.85162    322.87014    16.184955    128.68879   -18685.175    2147.0477   -16538.127 
19890000    328.55485    321.91404   -440.35158    184.65289   -18707.337    2151.6531   -16555.684 
19900000    331.78084    322.01186    411.37037    12.804253   -18817.874    2172.7795   -16645.095 
19910000    328.41295    321.82493    447.34934    188.88479   -18693.857    2150.7238   -16543.134 
19920000    319.40132    322.38338    105.20581    16.129422   -18695.166     2091.708   -16603.458 
19930000    322.06984    322.36093    184.28085    48.997492   -18652.024    2109.1837   -16542.841 
19940000    319.77661    323.22891   -133.57856   -73.887927   -18574.719    2094.1658   -16480.553 
19950000     327.5149    322.24114    284.89549    125.96429   -18733.627    2144.8425   -16588.785 
19960000    317.50178    323.37392    475.82268    15.158694   -18752.308    2079.2682    -16673.04 
19970000    320.82706    321.79665    851.94011   -49.006885   -18717.628     2101.045   -16616.583 
19980000    319.23498    322.11053     404.1134    206.82907   -18692.515    2090.6187   -16601.896 
19990000    322.06767    322.70502     509.2514    163.69408    -18733.05    2109.1696    -16623.88 
20000000    317.29022    323.01333   -107.31223    87.641434   -18708.513    2077.8828    -16630.63 
Loop time of 27418.6 on 128 procs for 20000000 steps with 3378 atoms

Performance: 63.023 ns/day, 0.381 hours/ns, 729.431 timesteps/s
99.3% CPU use with 128 MPI tasks x no OpenMP threads

MPI task timing breakdown:
Section |  min time  |  avg time  |  max time  |%varavg| %total
---------------------------------------------------------------
Pair    | 5023.4     | 6006.4     | 7015.9     | 598.7 | 21.91
Bond    | 21.664     | 22.364     | 23.979     |   7.6 |  0.08
Kspace  | 8509.9     | 9549.4     | 10474      | 467.7 | 34.83
Neigh   | 912.36     | 930.91     | 948.62     |  34.7 |  3.40
Comm    | 2331.2     | 2544.4     | 2776.6     | 200.8 |  9.28
Output  | 1.085      | 17.718     | 20.977     |  74.9 |  0.06
Modify  | 7935.5     | 8062.7     | 8179.9     |  74.8 | 29.41
Other   |            | 284.7      |            |       |  1.04

Nlocal:    26.3906 ave 34 max 19 min
Histogram: 2 4 19 8 38 13 20 11 10 3
Nghost:    3069.6 ave 3103 max 3039 min
Histogram: 2 5 17 26 19 26 19 4 6 4
Neighs:    10429 ave 13887 max 6581 min
Histogram: 2 6 8 23 17 20 28 11 8 5

Total # of neighbors = 1334907
Ave neighs/atom = 395.177
Ave special neighs/atom = 2.12789
Neighbor list builds = 2393873
Dangerous builds = 0

JOB STATISTICS
==============
Job ID: 2139189
Cluster: snellius
User/Group: phabibi/phabibi
State: RUNNING
Nodes: 1
Cores per node: 128
CPU Utilized: 00:00:00
CPU Efficiency: 0.00% of 64-05:15:44 core-walltime
Job Wall-clock time: 12:02:28
Memory Utilized: 0.00 MB (estimated maximum)
Memory Efficiency: 0.00% of 224.00 GB (1.75 GB/core)
WARNING: Efficiency statistics may be misleading for RUNNING jobs.
