LAMMPS (23 Jun 2022 - Update 1)
####################################################
# Preprocessing Li2SO4 in water
#################### SETTING UP ####################
units real
dimension 3
newton on
boundary p p p
atom_style full

#################### VARIABLES ####################
variable Temp equal 323.15    # Temperature in K
variable Pres equal 1.0       # Pressure in atm.

variable RandomSeed equal 60 # The random seed for velocity
variable tstep equal 2.0      # 1fs
variable Ninptpre equal 10000 # Pre-initialize the NPT ensemble (very small timesteps)
variable Ninpt equal 10000000  # Initialize the NPT ensemble
variable Npnpt equal 10000000  # Production in the NPT ensemble (volume)
variable Ninvtpre equal 10000 # Pre-initialize the NVT ensemble (very small timesteps)
variable Ninvt equal 500000   # Initialize the NVT ensemble
variable Nrun equal 50000     # production in the NVT ensemble (Transport properties) 1ns
variable Nf equal 1000         # Nfreq (fix ave/time and thermo)
variable Ne equal  1         # Nevery (fix ave/time)
variable Nr equal ${Nf}/${Ne} # Nrepeat (fix ave/time)
variable Nr equal 1000/${Ne} 
variable Nr equal 1000/1 
variable NBR equal ${Npnpt}/100 # Block averaging for density (NPT)
variable NBR equal 10000000/100 
variable Nd equal ${Nrun}/10 # Frequency of outputting positions of atoms in the NVT ensemble
variable Nd equal 50000/10 

variable nb equal 10          # Number of blocks (fix ordern)
variable nbe equal 20         # Number of block elements (fix ordern)
variable Nvisc equal 5        # Nevery for viscosity (fix ordern: sample data at (Nvisc*2))
variable Ncond equal 5        # Nevery for Tconductivity (fix ordern: sample data at (Ncond*2))
variable Ndiff equal 1000     # Nevery for diffusivity (fix ordern: sample data at (Ndiff))
variable Nwrit equal 100000   # Nwrite for transport properties (fix ordern: write every (Nwrit))

variable Nrdfe equal 1000     # Nevery for RDF (fix ave/time)
variable Nrdfw equal 1000     # Nwrite for RDF (compute rdf/ext: write every (Nrdfw*Nrdfe))
variable binnum equal 2000    # Number of bins for RDF

#################### ATOM DEFINITION and FORCEFIELD ####################
read_data ./data.lmp                     # read the positions
Reading data file ...
  orthogonal box = (0 0 0) to (32.73665 32.73665 32.73665)
  2 by 4 by 4 MPI processor grid
  reading atoms ...
  3486 atoms
  scanning bonds ...
  4 = max bonds/atom
  scanning angles ...
  6 = max angles/atom
  reading bonds ...
  2324 bonds
  reading angles ...
  1324 angles
Finding 1-2 1-3 1-4 neighbors ...
  special bond factors lj:    0        0        0       
  special bond factors coul:  0        0        0       
     4 = max # of 1-2 neighbors
     3 = max # of 1-3 neighbors
     3 = max # of 1-4 neighbors
     4 = max # of special neighbors
  special bonds CPU = 0.001 seconds
  read_data CPU = 0.020 seconds
include ./forcefield.data                # read the force field
#--------INTERMOLECULAR POTENTIAL -------------------#
# ---------------Developed for Li2SO4 in water (tip4p/2005) system-----#

mass 1 15.9994 # Ow
mass 2 1.008 # Hw
mass 3 6.891  # Li  -0.01, which went to ghost
mass 4 0.05 # m ghost of lithium
mass 5 0.1 # S  Center site without weight
mass 6 23.99065 # Os (added sulfur weight)


pair_style lj/cut/tip4p/long 1 2 1 1 0.1546 10.0
kspace_style pppm/tip4p 1.0e-5
pair_modify mix arithmetic tail yes # ATC and Lorentz-Berthelot combining rules

#-----------------Combinations----------------------------
# atomtype atomtype epsilon sigma

pair_coeff 1 1 0.185200 3.1589     # Ow-Ow
pair_coeff 1 2 0.000000 0.0000     # Ow-Hw
pair_coeff 1 3 0.167459 2.12       # Ow-Li
pair_coeff 1 4 0.000000 0.0000     # Ow-m
pair_coeff 1 5 0.215246 3.35445    # Ow-S  COMPUTE BY HAND LB mix
pair_coeff 1 6 0.150335 3.40445    # Ow-Os

pair_coeff 2 2 0.000000 0.0000     # Hw-Hw
pair_coeff 2 3 0.000000 0.0000     # Hw-Li
pair_coeff 2 4 0.000000 0.0000     # Hw-m
pair_coeff 2 5 0.000000 0.0000     # Hw-S
pair_coeff 2 6 0.000000 0.0000     # Hw-Os

pair_coeff 3 3 0.103989 1.4397     # Li-Li
pair_coeff 3 4 0.000000 0.0000     # Li-m
pair_coeff 3 5 0.161291 2.49485    # Li-S   COMPUTE BY HAND LB mix
pair_coeff 3 6 0.192067 2.844850   # Li-Os

pair_coeff 4 4 0.000000 0.0000     # m-m
pair_coeff 4 5 0.000000 0.0000     # m-S
pair_coeff 4 6 0.000000 0.0000     # m-Os

pair_coeff 5 5 0.250167 3.5500     # S-S
pair_coeff 5 6 0.223762 3.6000     # S-Os  CHECK BY HAND LB mix

pair_coeff 6 6 0.200143 3.6500     # Os-Os

bond_style  harmonic
bond_coeff 1 2000 0.9572           # Ow-Hw
bond_coeff 2 1000 0.5		   # Li-m
bond_coeff 3 1000 1.490		   # S-Os

angle_style harmonic
angle_coeff 1 200 104.52           # H-Ow-H
angle_coeff 2 200 109.5           # Os-S-Os

#dihedral_style none
#improper_style none

set type 1 charge -1.1128          # O
Setting atom values ...
  1000 settings made for charge
set type 2 charge +0.5564          # OH
Setting atom values ...
  2000 settings made for charge
set type 3 charge +0.8500          # Li
Setting atom values ...
  108 settings made for charge
set type 4 charge 0		   # m
Setting atom values ...
  108 settings made for charge
set type 5 charge +0.9000          # S
Setting atom values ...
  54 settings made for charge
set type 6 charge -0.6500          # Os
Setting atom values ...
  216 settings made for charge


#################### INITIALIZATION ####################
# groups for the central atoms of water (O)

group wat type 1		# O water
1000 atoms in group wat
group Li type 3			# Lithium atom
108 atoms in group Li
group S type 5			# S sulfite group centre
54 atoms in group S

# neigbor lists
neighbor 2.0 bin
neigh_modify every 1 delay 0 check yes

# velocity-Verlet integrator
run_style verlet

# initializing velocities
velocity all create ${Temp} ${RandomSeed}
velocity all create 323.15 ${RandomSeed}
velocity all create 323.15 60

# rate of writing thermal properties to the log file
thermo_style custom step density temp press etotal
thermo_modify flush yes
thermo ${Nf}
thermo 1000

#################### 2) Initialize the NPT ensemble ####################
######### Go to the correct temperature now ant initiate that ##########
fix integrate all rigid/npt/small molecule temp ${Temp} ${Temp} 10.0 iso ${Pres} ${Pres} 100.0
fix integrate all rigid/npt/small molecule temp 323.15 ${Temp} 10.0 iso ${Pres} ${Pres} 100.0
fix integrate all rigid/npt/small molecule temp 323.15 323.15 10.0 iso ${Pres} ${Pres} 100.0
fix integrate all rigid/npt/small molecule temp 323.15 323.15 10.0 iso 1 ${Pres} 100.0
fix integrate all rigid/npt/small molecule temp 323.15 323.15 10.0 iso 1 1 100.0
  create bodies CPU = 0.001 seconds
  1162 rigid bodies with 3486 atoms
  1.4900075 = max distance from body owner to body atom

# add dump trajectory

# Initializing the whole system with very small timesteps in the NPT ensemble
timestep 0.001
run ${Ninptpre}
run 10000
PPPM initialization ...
  extracting TIP4P info from pair style
  using 12-bit tables for long-range coulomb (../kspace.cpp:342)
  G vector (1/distance) = 0.30884801
  grid = 30 30 30
  stencil order = 5
  estimated absolute RMS force accuracy = 0.0040043444
  estimated relative force accuracy = 1.2058964e-05
  using double precision KISS FFT
  3d grid and FFT values/proc = 4950 960
Generated 0 of 15 mixed pair_coeff terms from arithmetic mixing rule
Neighbor list info ...
  update every 1 steps, delay 0 steps, check yes
  max neighbors/atom: 2000, page size: 100000
  master list distance cutoff = 12.3092
  ghost atom cutoff = 12.3092
  binsize = 6.1546, bins = 6 6 6
  1 neighbor lists, perpetual/occasional/extra = 1 0 0
  (1) pair lj/cut/tip4p/long, perpetual
      attributes: half, newton on
      pair build: half/bin/newton
      stencil: half/bin/3d
      bin: standard
Per MPI rank memory allocation (min/avg/max) = 15.47 | 15.5 | 15.53 Mbytes
   Step        Density          Temp          Press          TotEng    
         0   1.1336932      324.66094     -3706292.8      8524.5543    
      1000   1.132547       365.32639      122138.84      8460.1191    
      2000   1.1290037      478.46311      116096.79      8257.7321    
      3000   1.1232001      650.91655      105565.57      7904.4522    
      4000   1.115375       862.54268      91001.996      7382.2139    
      5000   1.1058556      1097.7984      76624.034      6724.4494    
      6000   1.0949894      1337.6498      62646.729      5941.6058    
      7000   1.0831333      1564.3377      48185.043      5045.576     
      8000   1.0706545      1763.1367      35973.557      4053.6376    
      9000   1.0578856      1923.7293      24923.278      2989.2375    
     10000   1.0451228      2040.1788      15824.945      1878.6313    
Loop time of 27.8885 on 32 procs for 10000 steps with 3486 atoms

Performance: 0.031 ns/day, 774.680 hours/ns, 358.571 timesteps/s
99.6% CPU use with 32 MPI tasks x no OpenMP threads

MPI task timing breakdown:
Section |  min time  |  avg time  |  max time  |%varavg| %total
---------------------------------------------------------------
Pair    | 9.4138     | 11.855     | 14.109     |  34.3 | 42.51
Bond    | 0.035422   | 0.045035   | 0.057189   |   2.4 |  0.16
Kspace  | 5.0831     | 7.3867     | 9.8098     |  43.6 | 26.49
Neigh   | 0.0024681  | 0.0025595  | 0.0027178  |   0.1 |  0.01
Comm    | 1.5138     | 1.66       | 1.7696     |   4.7 |  5.95
Output  | 0.00057401 | 0.00059843 | 0.00076532 |   0.0 |  0.00
Modify  | 6.2423     | 6.5792     | 6.7998     |   6.2 | 23.59
Other   |            | 0.3591     |            |       |  1.29

Nlocal:        108.938 ave         124 max          95 min
Histogram: 2 1 4 6 4 5 5 2 2 1
Nghost:        4096.44 ave        4144 max        4042 min
Histogram: 2 4 1 3 4 6 1 5 4 2
Neighs:        40023.1 ave       47188 max       33498 min
Histogram: 2 2 7 2 4 4 5 2 1 3

Total # of neighbors = 1280739
Ave neighs/atom = 367.39501
Ave special neighs/atom = 2.0929432
Neighbor list builds = 2
Dangerous builds = 0
timestep 0.01
run ${Ninptpre}
run 10000
PPPM initialization ...
  extracting TIP4P info from pair style
  using 12-bit tables for long-range coulomb (../kspace.cpp:342)
  G vector (1/distance) = 0.31154211
  grid = 32 32 32
  stencil order = 5
  estimated absolute RMS force accuracy = 0.0032517282
  estimated relative force accuracy = 9.7924828e-06
  using double precision KISS FFT
  3d grid and FFT values/proc = 5175 1024
Generated 0 of 15 mixed pair_coeff terms from arithmetic mixing rule
Per MPI rank memory allocation (min/avg/max) = 15.5 | 15.52 | 15.54 Mbytes
   Step        Density          Temp          Press          TotEng    
     10000   1.0451228      2040.1788      11379.568      1878.6698    
     11000   0.94608266     1652.6546     -13977.119     -7399.6589    
     12000   0.89930641     1189.4727     -14440.129     -11873.053    
     13000   0.88718117     986.38934     -12097.291     -14878.171    
     14000   0.89953847     830.28501     -10078.673     -17066.992    
     15000   0.93025277     711.43608     -6495.8595     -18733.093    
     16000   0.97234705     663.6789      -3960.2419     -20037.227    
     17000   1.0184998      634.00689     -1360.2728     -21135.783    
     18000   1.0625524      609.55401      526.34469     -22064.617    
     19000   1.1009508      577.61401      2670.0749     -22876.793    
     20000   1.1312425      547.38852      3238.1991     -23598.484    
Loop time of 26.4485 on 32 procs for 10000 steps with 3486 atoms

Performance: 0.327 ns/day, 73.468 hours/ns, 378.093 timesteps/s
99.6% CPU use with 32 MPI tasks x no OpenMP threads

MPI task timing breakdown:
Section |  min time  |  avg time  |  max time  |%varavg| %total
---------------------------------------------------------------
Pair    | 8.57       | 10.592     | 12.883     |  32.6 | 40.05
Bond    | 0.036715   | 0.045108   | 0.054674   |   2.1 |  0.17
Kspace  | 5.4689     | 7.8044     | 9.8198     |  38.4 | 29.51
Neigh   | 0.019317   | 0.020072   | 0.021536   |   0.4 |  0.08
Comm    | 1.4033     | 1.534      | 1.6236     |   4.2 |  5.80
Output  | 0.00037863 | 0.00038856 | 0.00056322 |   0.0 |  0.00
Modify  | 6.0821     | 6.2686     | 6.3228     |   1.6 | 23.70
Other   |            | 0.1845     |            |       |  0.70

Nlocal:        108.938 ave         126 max          96 min
Histogram: 3 2 5 4 5 3 6 2 0 2
Nghost:        4261.06 ave        4280 max        4235 min
Histogram: 3 1 2 2 6 1 2 8 3 4
Neighs:        41902.6 ave       49986 max       35860 min
Histogram: 4 3 7 1 3 6 3 3 0 2

Total # of neighbors = 1340883
Ave neighs/atom = 384.64802
Ave special neighs/atom = 2.0929432
Neighbor list builds = 17
Dangerous builds = 0
timestep 0.1
run ${Ninptpre}
run 10000
PPPM initialization ...
  extracting TIP4P info from pair style
  using 12-bit tables for long-range coulomb (../kspace.cpp:342)
  G vector (1/distance) = 0.30879564
  grid = 30 30 30
  stencil order = 5
  estimated absolute RMS force accuracy = 0.0040129736
  estimated relative force accuracy = 1.2084951e-05
  using double precision KISS FFT
  3d grid and FFT values/proc = 4950 960
Generated 0 of 15 mixed pair_coeff terms from arithmetic mixing rule
Per MPI rank memory allocation (min/avg/max) = 15.47 | 15.5 | 15.53 Mbytes
   Step        Density          Temp          Press          TotEng    
     20000   1.1312425      547.38852      6649.157      -23598.487    
     21000   1.2130999      364.12698      637.66452     -27955.112    
     22000   1.2256582      320.29894      250.6709      -29265.782    
     23000   1.2180659      321.6238      -102.03907     -29498.263    
     24000   1.2152404      325.81943     -52.557546     -29721.787    
     25000   1.1963657      322.26757     -726.94669     -29800.543    
     26000   1.2019718      322.66641     -751.56592     -29933.016    
     27000   1.1995494      332.52973     -912.03761     -29902.906    
     28000   1.1971231      321.43995     -897.82052     -30089.024    
     29000   1.2002146      320.82411      588.99259     -30153.578    
     30000   1.2055482      317.75765      416.07719     -30183.151    
Loop time of 29.8466 on 32 procs for 10000 steps with 3486 atoms

Performance: 2.895 ns/day, 8.291 hours/ns, 335.047 timesteps/s
99.6% CPU use with 32 MPI tasks x no OpenMP threads

MPI task timing breakdown:
Section |  min time  |  avg time  |  max time  |%varavg| %total
---------------------------------------------------------------
Pair    | 11.686     | 13.297     | 14.993     |  20.5 | 44.55
Bond    | 0.039418   | 0.045536   | 0.055918   |   1.7 |  0.15
Kspace  | 5.452      | 7.1805     | 8.8461     |  28.1 | 24.06
Neigh   | 0.12507    | 0.13045    | 0.13975    |   1.0 |  0.44
Comm    | 1.6093     | 1.7618     | 1.8913     |   5.0 |  5.90
Output  | 0.00037668 | 0.0003877  | 0.00058382 |   0.0 |  0.00
Modify  | 6.7432     | 7.092      | 7.3112     |   6.0 | 23.76
Other   |            | 0.3389     |            |       |  1.14

Nlocal:        108.938 ave         120 max          94 min
Histogram: 1 2 3 1 2 5 8 6 2 2
Nghost:        4456.47 ave        4495 max        4412 min
Histogram: 1 1 3 5 4 4 6 2 3 3
Neighs:        44949.7 ave       51883 max       39061 min
Histogram: 4 1 2 6 6 4 5 0 2 2

Total # of neighbors = 1438389
Ave neighs/atom = 412.61876
Ave special neighs/atom = 2.0929432
Neighbor list builds = 99
Dangerous builds = 0
timestep 0.2
run ${Ninptpre}
run 10000
PPPM initialization ...
  extracting TIP4P info from pair style
  using 12-bit tables for long-range coulomb (../kspace.cpp:342)
  G vector (1/distance) = 0.31033035
  grid = 30 30 30
  stencil order = 5
  estimated absolute RMS force accuracy = 0.0037670533
  estimated relative force accuracy = 1.1344369e-05
  using double precision KISS FFT
  3d grid and FFT values/proc = 4950 960
Generated 0 of 15 mixed pair_coeff terms from arithmetic mixing rule
Per MPI rank memory allocation (min/avg/max) = 15.48 | 15.51 | 15.53 Mbytes
   Step        Density          Temp          Press          TotEng    
     30000   1.2055482      317.75765      3205.2269     -30183.152    
     31000   1.1995463      323.54813     -678.13472     -30161.631    
     32000   1.1943964      329.03914      17.025162     -30205.003    
     33000   1.199406       328.75438      197.68816     -30196.238    
     34000   1.1922561      321.5132      -568.88359     -30280.421    
     35000   1.2011839      327.58348     -318.93527     -30337.201    
     36000   1.2041893      326.60567      273.64198     -30418.732    
     37000   1.191549       321.91052     -559.50396     -30386.687    
     38000   1.2033153      320.08271      201.84241     -30414.279    
     39000   1.205642       317.76799      105.33508     -30514.627    
     40000   1.2016667      311.41139     -7.5387495     -30532.894    
Loop time of 30.0329 on 32 procs for 10000 steps with 3486 atoms

Performance: 5.754 ns/day, 4.171 hours/ns, 332.968 timesteps/s
99.6% CPU use with 32 MPI tasks x no OpenMP threads

MPI task timing breakdown:
Section |  min time  |  avg time  |  max time  |%varavg| %total
---------------------------------------------------------------
Pair    | 11.76      | 13.416     | 14.745     |  20.1 | 44.67
Bond    | 0.041016   | 0.04545    | 0.052686   |   1.5 |  0.15
Kspace  | 5.6113     | 6.9704     | 8.5431     |  27.5 | 23.21
Neigh   | 0.30033    | 0.31345    | 0.33472    |   1.5 |  1.04
Comm    | 1.63       | 1.7861     | 1.9145     |   5.1 |  5.95
Output  | 0.00035755 | 0.00037927 | 0.00056468 |   0.0 |  0.00
Modify  | 6.8251     | 7.163      | 7.3797     |   5.9 | 23.85
Other   |            | 0.3385     |            |       |  1.13

Nlocal:        108.938 ave         120 max          99 min
Histogram: 4 0 1 4 11 3 4 1 3 1
Nghost:        4458.34 ave        4484 max        4438 min
Histogram: 4 4 1 7 4 3 2 3 2 2
Neighs:        44766.9 ave       49172 max       39624 min
Histogram: 3 2 2 3 3 3 8 3 0 5

Total # of neighbors = 1432540
Ave neighs/atom = 410.94091
Ave special neighs/atom = 2.0929432
Neighbor list builds = 238
Dangerous builds = 0
timestep 0.5
run ${Ninptpre}
run 10000
PPPM initialization ...
  extracting TIP4P info from pair style
  using 12-bit tables for long-range coulomb (../kspace.cpp:342)
  G vector (1/distance) = 0.31025278
  grid = 30 30 30
  stencil order = 5
  estimated absolute RMS force accuracy = 0.0037791403
  estimated relative force accuracy = 1.1380769e-05
  using double precision KISS FFT
  3d grid and FFT values/proc = 4950 960
Generated 0 of 15 mixed pair_coeff terms from arithmetic mixing rule
Per MPI rank memory allocation (min/avg/max) = 15.48 | 15.51 | 15.53 Mbytes
   Step        Density          Temp          Press          TotEng    
     40000   1.2016667      311.41139      2461.1545     -30532.894    
     41000   1.1978081      311.93768     -121.49766     -30517.033    
     42000   1.1982738      326.69405     -153.72749     -30461.499    
     43000   1.2057827      323.45045      307.64174     -30545.277    
     44000   1.2001247      317.30148     -243.19954     -30617.129    
     45000   1.1894825      323.78162     -1210.189      -30528.705    
     46000   1.1934181      310.07928     -518.11072     -30571.157    
     47000   1.2055467      326.80348     -438.05822     -30590.879    
     48000   1.2009265      321.97999     -310.46616     -30560.425    
     49000   1.2059055      324.37665     -645.8562      -30570.233    
     50000   1.203702       323.58074     -13.08188      -30569.786    
Loop time of 31.3047 on 32 procs for 10000 steps with 3486 atoms

Performance: 13.800 ns/day, 1.739 hours/ns, 319.441 timesteps/s
99.6% CPU use with 32 MPI tasks x no OpenMP threads

MPI task timing breakdown:
Section |  min time  |  avg time  |  max time  |%varavg| %total
---------------------------------------------------------------
Pair    | 11.908     | 13.515     | 15.111     |  21.6 | 43.17
Bond    | 0.040159   | 0.045575   | 0.052774   |   1.2 |  0.15
Kspace  | 5.5775     | 7.1561     | 8.6878     |  29.2 | 22.86
Neigh   | 0.88105    | 0.91937    | 0.97658    |   2.6 |  2.94
Comm    | 1.7335     | 1.8829     | 2.0151     |   4.9 |  6.01
Output  | 0.00037668 | 0.00038778 | 0.0005947  |   0.0 |  0.00
Modify  | 7.0974     | 7.4281     | 7.6472     |   5.9 | 23.73
Other   |            | 0.3575     |            |       |  1.14

Nlocal:        108.938 ave         121 max         100 min
Histogram: 4 4 3 5 3 4 2 5 1 1
Nghost:        4457.31 ave        4477 max        4432 min
Histogram: 2 0 1 6 5 2 5 4 5 2
Neighs:        44788.5 ave       51666 max       37337 min
Histogram: 1 0 6 6 2 5 4 4 3 1

Total # of neighbors = 1433232
Ave neighs/atom = 411.13941
Ave special neighs/atom = 2.0929432
Neighbor list builds = 694
Dangerous builds = 0
reset_timestep 0

# continuing the initialization with the final value of timestep
unfix integrate
fix integrate all rigid/npt/small molecule temp ${Temp} ${Temp} 100.0 iso ${Pres} ${Pres} 1000.0
fix integrate all rigid/npt/small molecule temp 323.15 ${Temp} 100.0 iso ${Pres} ${Pres} 1000.0
fix integrate all rigid/npt/small molecule temp 323.15 323.15 100.0 iso ${Pres} ${Pres} 1000.0
fix integrate all rigid/npt/small molecule temp 323.15 323.15 100.0 iso 1 ${Pres} 1000.0
fix integrate all rigid/npt/small molecule temp 323.15 323.15 100.0 iso 1 1 1000.0
  create bodies CPU = 0.000 seconds
  1162 rigid bodies with 3486 atoms
  1.490342 = max distance from body owner to body atom

timestep ${tstep}
timestep 2
run ${Ninpt}
run 10000000
PPPM initialization ...
  extracting TIP4P info from pair style
  using 12-bit tables for long-range coulomb (../kspace.cpp:342)
  G vector (1/distance) = 0.31029349
  grid = 30 30 30
  stencil order = 5
  estimated absolute RMS force accuracy = 0.0037727928
  estimated relative force accuracy = 1.1361653e-05
  using double precision KISS FFT
  3d grid and FFT values/proc = 4950 960
Generated 0 of 15 mixed pair_coeff terms from arithmetic mixing rule
Per MPI rank memory allocation (min/avg/max) = 15.48 | 15.51 | 15.53 Mbytes
   Step        Density          Temp          Press          TotEng    
         0   1.203702       323.58074      318.59203     -30569.786    
      1000   1.2106954      328.84598      495.27162     -30597.14     
      2000   1.20563        316.40648      396.41122     -30620.298    
      3000   1.2000883      320.22703      272.89448     -30574.405    
      4000   1.1976456      328.77534      500.33589     -30572.876    
      5000   1.2038632      317.09807      180.49484     -30671.127    
      6000   1.2042543      321.75272      517.64597     -30504.415    
      7000   1.1977558      321.97476     -44.568688     -30635.845    
      8000   1.195011       314.43822     -470.15803     -30675.392    
      9000   1.195561       323.34025      215.42052     -30622.068    
     10000   1.1962847      320.7451      -1142.195      -30666.253    
     11000   1.2021756      310.13002      396.55667     -30708.273    
     12000   1.2019926      315.45584      715.25062     -30750.145    
     13000   1.2000054      322.61014     -251.66191     -30637.813    
     14000   1.1912611      324.69112     -122.11703     -30543.582    
     15000   1.196931       329.24839     -446.71725     -30640.125    
     16000   1.1933858      327.51497     -530.81249     -30537.568    
     17000   1.1795616      317.40595     -422.91375     -30630.734    
     18000   1.184185       323.34811     -477.35032     -30619.921    
     19000   1.201119       321.62655     -307.01635     -30683.434    
     20000   1.2003627      312.79452     -33.667288     -30691        
     21000   1.1984184      315.69401     -167.26729     -30686.07     
     22000   1.1988695      320.38606     -432.03105     -30614.311    
     23000   1.2038577      319.68578      177.21488     -30684.435    
     24000   1.1975363      322.76187      136.44542     -30700.475    
     25000   1.1995322      321.31084     -499.69302     -30599.531    
     26000   1.1910346      325.21272     -1036.5023     -30612.737    
     27000   1.1991985      324.10279      339.87239     -30704.004    
     28000   1.1949705      317.03569     -242.77636     -30661.605    
     29000   1.2028938      314.76278      167.32133     -30748.908    
     30000   1.1962513      321.0002      -286.84551     -30638.013    
     31000   1.1948398      321.73984      59.855398     -30725.074    
     32000   1.195965       321.26464      126.54904     -30631.896    
     33000   1.2052896      324.64608     -106.86827     -30665.099    
     34000   1.20933        321.85893      10.963584     -30681.26     
     35000   1.2070178      322.04631      384.54662     -30757.868    
     36000   1.2077966      322.35464      17.070278     -30715.009    
     37000   1.1996089      319.88787      407.15352     -30771.632    
     38000   1.1928331      317.40145     -133.76558     -30683.62     
     39000   1.210253       322.43756      670.51346     -30705.609    
     40000   1.2068363      311.23934      764.68763     -30770.787    
     41000   1.2039527      312.13725     -481.55816     -30814.055    
     42000   1.2087002      320.37624      953.13792     -30695.455    
     43000   1.2006599      317.64737     -300.0336      -30763.323    
     44000   1.1961618      322.58568      254.4278      -30648.432    
     45000   1.1963709      320.66655     -222.09913     -30713.531    
     46000   1.2011464      320.62148     -1098.9988     -30755.892    
     47000   1.2044574      315.54729     -298.43539     -30757.755    
     48000   1.1965823      321.3842       181.00753     -30639.918    
     49000   1.2082399      310.26942      186.47898     -30806.743    
     50000   1.1971814      325.27157      680.13924     -30670.97     
     51000   1.2059171      323.27621      21.066229     -30770.697    
     52000   1.1929643      314.80521     -332.95618     -30665.811    
     53000   1.1969939      317.20556     -795.49424     -30687.473    
     54000   1.1996434      324.2441      -762.44571     -30710.336    
     55000   1.206272       320.36153      248.6259      -30768.258    
     56000   1.2010796      321.57857     -428.15747     -30654.718    
     57000   1.2011565      324.74114      349.11542     -30615.204    
     58000   1.1859563      329.05458     -134.30867     -30637.839    
     59000   1.1996016      320.07626     -145.85613     -30686.96     
     60000   1.2054521      321.56614      404.4204      -30784.853    
     61000   1.19758        323.66641     -242.95501     -30632.521    
     62000   1.1966861      313.69881      43.144606     -30767.243    
     63000   1.1954579      320.30456      215.36176     -30709.29     
     64000   1.2017417      327.28578      301.01682     -30596.474    
     65000   1.1905656      317.52879     -162.25136     -30545.046    
     66000   1.196401       326.49036     -440.76374     -30611.794    
     67000   1.1972485      313.67786     -5.6388503     -30659.737    
     68000   1.1945735      318.40998     -528.59468     -30650.793    
     69000   1.1961176      314.76914     -535.762       -30675.309    
     70000   1.1969862      320.25693     -293.44969     -30675.044    
     71000   1.2045875      315.10105      242.17783     -30763.235    
     72000   1.2089914      316.76725      133.86954     -30708.77     
     73000   1.1984638      320.11663      4.7920808     -30687.898    
     74000   1.1990807      321.02211      205.67492     -30729.121    
     75000   1.194578       315.88882     -919.8011      -30650.869    
     76000   1.1973914      319.38267     -579.40711     -30783.286    
     77000   1.202692       327.18638      201.85411     -30663.175    
     78000   1.197305       313.9525       762.41739     -30653.673    
     79000   1.2063862      324.01473      224.63975     -30660.2      
     80000   1.2014372      315.28899      81.55144      -30674.893    
     81000   1.1989775      314.83236      173.69148     -30733.817    
     82000   1.195436       324.7091      -657.29907     -30578.292    
     83000   1.2031949      318.33469     -304.29958     -30619.611    
     84000   1.2095594      315.58282      684.36697     -30789.179    
     85000   1.1969811      331.23706     -443.57586     -30565.964    
     86000   1.2046646      323.68008      451.51801     -30579.501    
     87000   1.2109639      330.51977      533.44727     -30663.09     
     88000   1.2045126      315.62681     -691.4221      -30755.807    
     89000   1.2085605      325.28492      334.04416     -30625.887    
     90000   1.1959124      327.88946     -271.55967     -30608.23     
     91000   1.1960033      329.54674     -451.35688     -30573.198    
     92000   1.195154       318.94212     -132.71024     -30771.668    
     93000   1.2011409      323.49389     -234.94258     -30718.497    
     94000   1.1981649      322.6867       338.17442     -30574.699    
     95000   1.2017757      329.85981     -41.532974     -30672.764    
     96000   1.2104716      314.01674      306.31447     -30695.274    
     97000   1.1951756      322.46034     -404.59828     -30650.95     
     98000   1.1874144      319.64217     -561.66606     -30561.959    
     99000   1.199769       320.58837      259.66928     -30604.453    
    100000   1.1846317      321.36065     -677.586       -30672.788    
    101000   1.2014179      318.62111     -601.53608     -30625.253    
    102000   1.204318       321.54487      52.214652     -30614.546    
    103000   1.2156888      322.48123     -252.36662     -30791.668    
    104000   1.203287       329.63356     -283.08912     -30629.668    
    105000   1.2045891      312.83746      481.11395     -30713.946    
    106000   1.205597       315.07952      64.873609     -30737.335    
    107000   1.195176       316.51951      210.43912     -30694.418    
    108000   1.2024299      321.64656     -243.33029     -30748.243    
    109000   1.2010389      318.57655     -41.010901     -30713.524    
    110000   1.1983233      332.87329      16.226586     -30680.982    
    111000   1.1956415      316.31377     -104.73578     -30716.431    
    112000   1.1957706      308.92238     -720.8541      -30783.889    
    113000   1.2016605      323.22296     -413.48606     -30615.528    
    114000   1.2047869      323.9756       56.824669     -30650.308    
    115000   1.2128409      321.86328      1417.9597     -30762.29     
    116000   1.1927934      322.94399     -1201.8708     -30687.004    
    117000   1.2033041      331.11103     -317.31927     -30602.91     
    118000   1.2135464      317.14665     -88.098502     -30822.404    
    119000   1.2026258      319.89385      186.00882     -30773.697    
    120000   1.2088579      329.79909     -155.7405      -30764.821    
    121000   1.1964727      324.32021      134.89708     -30678.38     
    122000   1.2027882      315.65037     -722.73641     -30724.347    
    123000   1.2096005      317.84577      463.91944     -30655.995    
    124000   1.2095207      322.81003      29.581413     -30745.92     
    125000   1.1989323      326.4559      -210.10406     -30621.662    
    126000   1.2023144      328.49601     -172.8356      -30725.781    
    127000   1.2106094      319.65218      471.58183     -30720.709    
    128000   1.2079132      323.68914     -357.50109     -30769.651    
    129000   1.1949263      324.094       -44.897835     -30551.175    
    130000   1.1948605      321.62838     -275.22079     -30622.746    
    131000   1.18694        326.72908     -736.21228     -30545.251    
    132000   1.1928702      325.73153     -716.59944     -30639.169    
    133000   1.1982142      326.72721     -969.87812     -30565.967    
    134000   1.2091824      323.04241      683.96312     -30616.602    
    135000   1.2031322      320.95179     -844.57561     -30689.291    
    136000   1.2028795      327.00991      658.6002      -30622.184    
    137000   1.1982631      321.61198     -7.8974451     -30691.415    
    138000   1.1874875      321.15992      2.050505      -30672.767    
    139000   1.1876951      326.42802     -703.95769     -30639.27     
    140000   1.2034484      317.11577      1575.1459     -30681.415    
    141000   1.1989767      312.22252      522.12078     -30808.643    
    142000   1.1965144      322.35        -694.10227     -30694.529    
    143000   1.2001749      319.80598     -502.90287     -30614.229    
    144000   1.1922281      324.54116      145.71292     -30642.01     
    145000   1.1928997      325.8413      -145.08535     -30621.137    
    146000   1.1937724      322.15087     -202.15296     -30731.042    
    147000   1.1904301      321.76369     -710.48743     -30775.177    
    148000   1.1905811      322.69632      415.68525     -30606.654    
    149000   1.1889081      321.17571      64.461601     -30642.191    
    150000   1.1915037      321.49544     -755.71289     -30579.418    
    151000   1.1982642      327.88919      504.07521     -30716.378    
    152000   1.2110045      326.26341      198.70392     -30631.015    
    153000   1.1933707      316.19877     -299.48914     -30638.809    
    154000   1.2052202      322.2713       1268.1088     -30634.502    
    155000   1.209149       327.5226       491.72646     -30616.462    
    156000   1.1995177      321.6349       14.91224      -30657.643    
    157000   1.1942426      319.19057     -300.46724     -30632.379    
    158000   1.2008143      323.47313      281.4258      -30732.754    
    159000   1.2036472      311.57306      1090.0318     -30695.314    
    160000   1.1940207      312.5025      -985.48684     -30782.206    
    161000   1.1998762      324.79147     -553.84909     -30641.591    
    162000   1.1881943      316.97873     -275.30078     -30591.34     
    163000   1.1965693      314.85116     -501.26811     -30774.336    
    164000   1.2100334      317.55607      1194.7058     -30806.652    
    165000   1.1980617      317.676       -148.98045     -30789.539    
    166000   1.2044474      314.17352      183.99525     -30766.403    
    167000   1.2042164      321.4301      -133.63564     -30649.792    
    168000   1.2050262      328.70487     -305.6888      -30721.342    
    169000   1.1954859      318.58616     -305.79596     -30609.901    
    170000   1.1982483      312.65986      687.27078     -30634.742    
    171000   1.2019242      319.28876      329.89221     -30736.47     
    172000   1.2184531      320.60161      1588.5246     -30763.995    
    173000   1.2120744      313.41991      1328.2051     -30819.546    
    174000   1.1963193      328.79787     -608.80014     -30650.996    
    175000   1.2054583      319.44247      949.43799     -30622.3      
    176000   1.2076398      319.16516     -278.10368     -30652.233    
    177000   1.2087114      317.59516      697.16644     -30761.561    
    178000   1.1987466      308.65407     -1424.4687     -30817.711    
    179000   1.2068178      318.6085       296.31768     -30673.578    
    180000   1.2025601      318.47609      444.55413     -30737.292    
    181000   1.2000299      316.15353     -561.23946     -30768.073    
    182000   1.2130989      321.80226      648.86719     -30679.664    
    183000   1.1942505      320.98907     -267.03599     -30732.925    
    184000   1.1933687      319.96442     -481.57553     -30639.603    
    185000   1.2008938      326.97357     -334.4732      -30657.157    
    186000   1.1990836      321.92378      771.20272     -30538.204    
    187000   1.2096132      324.2251       214.26385     -30648.462    
    188000   1.1930314      325.5395       104.74818     -30674.134    
    189000   1.1931429      321.24578     -754.83841     -30681.245    
    190000   1.1871971      327.26003     -223.11148     -30624.416    
    191000   1.1951822      320.98987      172.16187     -30678.847    
    192000   1.2148038      324.0542       970.33388     -30700.227    
    193000   1.2079818      323.30066      720.76149     -30686.956    
    194000   1.2016975      328.89815      651.0169      -30647.738    
    195000   1.1908835      313.3123       105.19752     -30786.737    
    196000   1.2006807      324.72877     -331.53391     -30761.505    
    197000   1.1958694      320.78732     -414.63649     -30719.095    
    198000   1.205428       323.24829      399.47284     -30735.107    
    199000   1.198562       315.5661      -527.47544     -30811.536    
    200000   1.2151823      324.41921      413.70154     -30653.48     
    201000   1.1983705      326.31064      859.47324     -30663.013    
    202000   1.1983636      325.71028      500.27907     -30601.853    
    203000   1.1837516      308.48426     -677.00791     -30812.644    
    204000   1.2016849      321.25313      26.332115     -30653.389    
    205000   1.1978266      326.9925       219.17441     -30682.661    
    206000   1.1959299      320.38528     -847.5281      -30726.944    
    207000   1.2021106      327.56813      442.21503     -30672.599    
    208000   1.2060488      326.48653      1126.3999     -30749.278    
    209000   1.2033588      325.1457      -225.44052     -30654.932    
    210000   1.2053732      331.57961      780.47453     -30578.66     
    211000   1.2040774      328.90174      653.50642     -30624.615    
    212000   1.2041372      327.84858      347.96838     -30691.05     
    213000   1.2033448      316.24178     -34.580973     -30688.069    
    214000   1.1976804      324.11066     -180.59638     -30710.539    
    215000   1.1927163      332.51992     -98.676081     -30607.899    
    216000   1.191292       314.32394     -17.484268     -30732.949    
    217000   1.2053709      321.8895       206.02221     -30705.784    
    218000   1.1986697      319.56911     -427.6191      -30756.903    
    219000   1.1936679      320.64296      761.21151     -30694.007    
    220000   1.1880873      325.62143      267.62849     -30627.173    
    221000   1.1821025      321.52073      451.46491     -30627.279    
    222000   1.2002539      321.05047      964.62406     -30730.544    
    223000   1.2025406      315.67511     -325.23184     -30739.925    
    224000   1.2013504      322.46258      595.66873     -30653.698    
    225000   1.1943679      309.58158     -209.73055     -30798.606    
    226000   1.1996108      328.32976      316.57873     -30630.327    
    227000   1.1970693      330.91351      55.174135     -30584.413    
    228000   1.1997557      322.15625     -453.10097     -30778.018    
    229000   1.1892149      321.85564     -1048.8149     -30782.974    
    230000   1.1942058      317.98119      372.33238     -30706.435    
    231000   1.1872589      313.24033     -114.59967     -30781.609    
    232000   1.2104874      331.362        767.01341     -30576.679    
    233000   1.20117        315.8183       191.47737     -30682.469    
    234000   1.1922276      327.31015     -381.32085     -30641.889    
    235000   1.1975453      316.9419      -638.66426     -30659.378    
    236000   1.204728       313.26998      178.83104     -30739.424    
    237000   1.1873215      319.67235     -1057.8892     -30688.52     
    238000   1.2056593      325.20803      552.01279     -30748.161    
    239000   1.204272       309.54768      646.76199     -30792.896    
    240000   1.2019169      316.32175     -446.02381     -30736.421    
    241000   1.2007297      309.01019      1013.3731     -30830.496    
    242000   1.2019223      315.13592      268.9831      -30697.283    
    243000   1.2016759      326.80475      476.54792     -30662.605    
    244000   1.1974133      311.55638     -542.84978     -30697.135    
    245000   1.2001094      321.90217      459.96633     -30588.456    
    246000   1.1989815      321.62508      341.03741     -30630.374    
    247000   1.213244       326.57356     -36.312425     -30651.629    
    248000   1.1986654      322.20216      417.91788     -30635.138    
    249000   1.2001549      323.35706      263.67673     -30544.771    
    250000   1.2126693      321.92813      1317.4094     -30688.351    
    251000   1.2009653      327.02092      85.541145     -30522.949    
    252000   1.1998341      317.49161      502.18585     -30704.79     
    253000   1.2021903      325.95075     -360.59367     -30614.617    
    254000   1.1950766      314.01958      187.24019     -30651.791    
    255000   1.2027609      323.32034      136.49139     -30628.113    
    256000   1.2096222      324.10072      331.94058     -30698.139    
    257000   1.2082207      319.11798     -280.24751     -30705.585    
    258000   1.2085041      325.48481      747.01075     -30618.916    
    259000   1.1967973      324.17052      663.44834     -30622.098    
    260000   1.1910278      312.1751      -2.1032854     -30653.28     
    261000   1.1956916      321.93327      530.43654     -30764.949    
    262000   1.1988105      326.67143      235.76261     -30658.187    
    263000   1.2055015      323.105       -510.77568     -30686.471    
    264000   1.1978899      333.87673     -608.33288     -30638.167    
    265000   1.2053783      326.39172     -378.9011      -30692.285    
    266000   1.2057044      322.45944      99.405729     -30747.962    
    267000   1.2058436      320.90974      520.4243      -30614.151    
    268000   1.2047051      313.71966     -488.27696     -30717.445    
    269000   1.2078646      319.29322      1362.9635     -30674.341    
    270000   1.1950392      312.24516     -710.06561     -30734.003    
    271000   1.1978105      319.77984     -529.00885     -30697.993    
    272000   1.1962126      335.53939     -416.50632     -30601.666    
    273000   1.1991278      320.60118      914.446       -30539.925    
    274000   1.2111122      319.6099       1172.361      -30683.959    
    275000   1.2069742      315.96289     -311.7824      -30701.61     
    276000   1.1969587      326.85538     -1333.1354     -30538.33     
    277000   1.2054968      327.56082      823.29762     -30550.996    
    278000   1.2030099      324.89395     -27.853789     -30565.42     
    279000   1.1990831      320.39758     -398.96547     -30684.793    
    280000   1.1920851      316.88244     -393.19621     -30612.093    
    281000   1.1887633      314.85254     -637.63251     -30640.812    
    282000   1.1998166      320.07285     -360.56616     -30714.026    
    283000   1.1995062      322.40511     -574.63128     -30615.565    
    284000   1.1972008      321.23495     -521.45546     -30725.751    
    285000   1.1946926      323.94452     -462.87937     -30688.5      
    286000   1.1991831      326.03376      545.53591     -30657.467    
    287000   1.1950999      335.14697      315.50019     -30608.623    
    288000   1.1934502      323.29568      719.22912     -30650.386    
    289000   1.2139979      318.1774       917.58442     -30705.562    
    290000   1.2054962      325.90699      673.6129      -30525.776    
    291000   1.193563       319.94417      418.07429     -30613.361    
    292000   1.2038551      319.61234      322.4447      -30644.995    
    293000   1.205485       311.89317      1006.6681     -30680.893    
    294000   1.1971485      321.83415      389.40041     -30713.337    
    295000   1.1942793      323.23563     -215.06955     -30676.397    
    296000   1.1997538      318.04589     -397.92966     -30693.146    
    297000   1.2016625      323.9831       380.32139     -30780.873    
    298000   1.198193       317.31789     -574.00936     -30811.031    
    299000   1.2016066      320.74141     -394.25886     -30711.278    
    300000   1.1791175      321.01267     -824.07044     -30625.418    
    301000   1.1932223      320.59212     -499.87106     -30719.694    
    302000   1.2039702      323.08252     -131.70269     -30748.986    
    303000   1.1960754      313.55298     -1050.5833     -30755.542    
    304000   1.1985646      314.4083       547.13701     -30669.304    
    305000   1.2070498      320.20918      454.95131     -30688.123    
    306000   1.1915624      329.4273       192.87047     -30506.601    
    307000   1.1873356      327.34287     -1076.5237     -30605.454    
    308000   1.1937902      322.57901      70.697171     -30610.333    
    309000   1.1995683      318.33457     -274.48956     -30748.589    
    310000   1.1985474      316.92948     -300.78758     -30659.255    
    311000   1.2079116      324.82676      337.98416     -30668.703    
    312000   1.2076435      317.40688      585.82414     -30671.057    
    313000   1.1947908      312.02547     -196.98838     -30755.977    
    314000   1.1911138      317.17959     -396.87719     -30811.448    
    315000   1.2084422      318.592        968.68377     -30608.8      
    316000   1.2064508      326.14024      108.62976     -30655.911    
    317000   1.2057549      322.40563      506.45034     -30621.081    
    318000   1.1927874      316.23702     -528.8915      -30662.533    
    319000   1.1970089      323.7616      -1033.6655     -30641.774    
    320000   1.2004388      316.96969      683.75114     -30686.461    
    321000   1.2141748      327.45465      357.39518     -30618.928    
    322000   1.2034307      309.42249     -157.86968     -30748.532    
    323000   1.2070002      319.65773     -0.9500199     -30615.629    
    324000   1.2037316      319.21804     -164.73503     -30691.908    
    325000   1.2014384      332.51208     -162.11615     -30663.845    
    326000   1.204135       324.85257      341.49116     -30709.354    
    327000   1.1923394      328.30693     -498.17527     -30528.142    
    328000   1.1939831      325.89912     -248.55829     -30589.029    
    329000   1.1913316      316.99221     -280.69446     -30665.614    
    330000   1.2049528      334.41803     -318.46261     -30580.201    
    331000   1.2029988      325.13032      95.960389     -30727.04     
    332000   1.1974439      314.46365      419.85267     -30785.573    
    333000   1.2055057      317.96143     -42.376573     -30740.372    
    334000   1.2091856      318.44977     -577.23658     -30726.712    
    335000   1.1962917      316.13709     -746.25792     -30715.556    
    336000   1.2024708      319.60585     -61.915274     -30611.602    
    337000   1.1950166      327.05612     -137.7357      -30584.079    
    338000   1.20056        324.9765       163.00698     -30671.273    
    339000   1.2176947      319.24498      1670.9906     -30612.985    
    340000   1.1995757      322.55855      711.914       -30696        
    341000   1.200607       304.43586      410.12805     -30707.514    
    342000   1.2036545      321.15964     -197.79153     -30650.531    
    343000   1.2011683      323.77534      404.61003     -30562.176    
    344000   1.1832827      327.40074     -409.19511     -30525.689    
    345000   1.2024255      315.0182       793.98617     -30744.078    
    346000   1.1892973      319.73985     -126.85748     -30677.18     
    347000   1.1954715      315.41787     -348.26905     -30681.324    
    348000   1.2079563      322.66966      19.727838     -30671.115    
    349000   1.1976079      324.6862      -676.62309     -30629.848    
    350000   1.19815        310.17725      862.71032     -30726.812    
    351000   1.202059       326.97977      876.87288     -30586.959    
    352000   1.1912064      320.33693      199.00743     -30681.844    
    353000   1.193292       316.43391     -349.78606     -30639.934    
    354000   1.2040987      323.27941      138.12525     -30708.174    
    355000   1.2142221      318.09957      609.2759      -30752.989    
    356000   1.2037477      323.45479      151.22283     -30686.938    
    357000   1.211336       318.69961      702.03727     -30720.696    
    358000   1.2094919      324.48275      675.29446     -30579.965    
    359000   1.1994349      323.94094     -413.68796     -30738.389    
    360000   1.197349       324.83182     -129.77601     -30656.293    
    361000   1.1885381      326.48288     -648.49917     -30596.208    
    362000   1.2035529      329.72268      101.025       -30596.634    
    363000   1.1995878      318.01507      451.44167     -30694.477    
    364000   1.1965871      323.54302     -797.10407     -30650.004    
    365000   1.1878187      318.66994     -719.32187     -30686.681    
    366000   1.2019267      322.25536      889.81855     -30697.311    
    367000   1.1943782      318.89272     -323.29848     -30704.497    
    368000   1.2000446      323.6326       426.25032     -30659.877    
    369000   1.200434       316.17838      286.77246     -30710.959    
    370000   1.2134969      309.27735      837.56878     -30738.837    
    371000   1.2085399      327.3445       569.93185     -30657.968    
    372000   1.1962747      326.10466     -682.27001     -30769.393    
    373000   1.1964851      321.20946     -516.76539     -30711.291    
    374000   1.1932344      319.29313     -479.14097     -30766.526    
    375000   1.2037822      316.68933     -143.42861     -30816.556    
    376000   1.1954592      319.67384      796.32019     -30599.085    
    377000   1.2007855      315.59317     -518.42592     -30729.672    
    378000   1.213059       318.95086     -25.84763      -30712.544    
    379000   1.2119368      320.36502     -25.23217      -30687.911    
    380000   1.186603       322.64365     -584.37743     -30643.197    
    381000   1.1934864      320.49804     -451.72666     -30763.034    
    382000   1.2010171      322.26268      70.053642     -30674.913    
    383000   1.2045438      332.45384     -527.11889     -30560.3      
    384000   1.196794       323.29794     -196.0838      -30585.907    
    385000   1.2014603      328.73302      349.45075     -30620.037    
    386000   1.2059126      309.91291      15.234621     -30795.792    
    387000   1.1944069      322.61199     -549.82029     -30678.037    
    388000   1.1962788      322.61149      198.44403     -30822.502    
    389000   1.2070145      325.39812      321.65527     -30671.8      
    390000   1.2032133      317.45861      745.14074     -30658.499    
    391000   1.2027631      311.52815      266.05061     -30831.396    
    392000   1.19314        314.21485     -772.13971     -30672.347    
    393000   1.1984486      316.75169     -274.93711     -30728.803    
    394000   1.194985       318.29873     -123.56109     -30690.537    
    395000   1.2060996      323.80071      122.72696     -30697.991    
    396000   1.1993843      321.98537      470.53696     -30757.311    
    397000   1.2001548      333.11003      171.8582      -30594.539    
    398000   1.1907382      321.76356     -1364.9048     -30675.202    
    399000   1.1821793      317.18653     -512.03563     -30676.977    
    400000   1.2072159      322.39551      261.34319     -30621.672    
    401000   1.2150854      314.43126      137.78715     -30776.616    
    402000   1.2131818      324.56032      1341.564      -30673.957    
    403000   1.1996592      330.4174      -32.190193     -30700.152    
    404000   1.194276       322.60318     -663.38096     -30832.179    
    405000   1.1963899      322.05255     -534.09779     -30751.28     
    406000   1.1989701      321.18465     -240.74889     -30698.504    
    407000   1.1941521      323.1392      -424.46678     -30600.689    
    408000   1.209489       331.84208     -23.416964     -30563.545    
    409000   1.2098177      309.94126      1086.0011     -30689.662    
    410000   1.1962572      322.63197     -134.69055     -30668.427    
    411000   1.2013016      323.04241      28.289007     -30636.488    
    412000   1.2045841      327.92709     -546.19251     -30718.541    
    413000   1.2082867      325.05179      473.14558     -30571.553    
    414000   1.1944519      329.37211     -479.93489     -30645.866    
    415000   1.206659       317.04617     -578.31104     -30795.249    
    416000   1.2091076      317.25899     -284.58838     -30731.587    
    417000   1.2168739      315.48596      889.10358     -30665.065    
    418000   1.2157054      317.97096      255.36208     -30737.288    
    419000   1.1950608      314.77426     -538.13231     -30547.337    
    420000   1.2105521      328.45527      1873.5718     -30611.834    
    421000   1.2054236      331.71536     -36.730718     -30659.619    
    422000   1.2041595      320.10826      145.34393     -30708.036    
    423000   1.1915201      320.8037      -830.00311     -30674.642    
    424000   1.1993886      326.15215     -546.556       -30635.381    
    425000   1.1898962      332.08488      506.76087     -30617.595    
    426000   1.2015927      317.1005      -139.78412     -30833.477    
    427000   1.2143425      317.87688      36.950475     -30749.552    
    428000   1.2040398      325.03634      514.9299      -30641.524    
    429000   1.2100284      317.34259      783.22586     -30709.819    
    430000   1.1989263      317.06481      244.25261     -30743.327    
    431000   1.2064053      316.24847      151.76379     -30785.803    
    432000   1.1985627      311.08691     -1004.691      -30794.046    
    433000   1.209975       316.59811     -82.351589     -30652.956    
    434000   1.1940504      324.76194     -191.62157     -30649.177    
    435000   1.1854685      315.82467     -203.28521     -30663.367    
    436000   1.1908472      321.89455     -675.43676     -30778.762    
    437000   1.2035554      321.64745      749.4529      -30812.749    
    438000   1.2018098      318.75382      674.87472     -30736.345    
    439000   1.2118469      318.5877      -28.353647     -30818.187    
    440000   1.2014381      320.98856      816.39315     -30524.241    
    441000   1.2043817      316.08843      204.18073     -30716.839    
    442000   1.1986073      324.40249      595.50544     -30643.895    
    443000   1.1897707      319.27097     -541.37343     -30678.339    
    444000   1.2018332      317.65966      426.30271     -30715.244    
    445000   1.1982472      322.96148     -147.56682     -30629.499    
    446000   1.203412       315.9404      -268.10068     -30754.5      
    447000   1.1997391      313.97707     -884.13535     -30745.262    
    448000   1.2052008      316.52974      917.20797     -30754.21     
    449000   1.1929895      317.52957      594.0075      -30724.069    
    450000   1.2091667      308.54415      210.83094     -30779.228    
    451000   1.1878046      316.49393     -690.92832     -30701.018    
    452000   1.1929433      316.94654     -1157.9899     -30625.267    
    453000   1.2070512      325.63138      375.02836     -30636.054    
    454000   1.1977736      317.60891      488.38444     -30716.532    
    455000   1.2009602      318.98909      7.2926899     -30723.573    
    456000   1.1969935      321.3784       509.21233     -30649.139    
    457000   1.1966892      319.04822     -161.02764     -30740.805    
    458000   1.2026474      318.12097      209.49716     -30692.338    
    459000   1.1989934      308.99569     -216.13354     -30806.523    
    460000   1.2036497      319.04716      813.18837     -30733.86     
    461000   1.2015726      305.29652      324.96448     -30896.663    
    462000   1.1940452      333.49025     -271.98999     -30551.076    
    463000   1.1892772      321.15495     -313.73269     -30667.975    
    464000   1.1939013      338.47824      412.88451     -30428.083    
    465000   1.2086384      319.34268      377.65206     -30720.764    
    466000   1.1912293      327.68457     -595.41792     -30628.741    
    467000   1.1853743      323.00757     -650.37873     -30596.43     
    468000   1.1952363      316.90603      116.64758     -30747.42     
    469000   1.205801       316.81471      193.23176     -30789.513    
    470000   1.2027263      319.31405      128.12719     -30646.868    
    471000   1.2040572      320.53759     -98.177118     -30727.145    
    472000   1.1965275      315.12508     -21.990612     -30703.605    
    473000   1.1945177      314.43973      0.041866127   -30628.212    
    474000   1.1977943      312.57752      268.4135      -30732.189    
    475000   1.2053678      329.12135     -210.17115     -30693.42     
    476000   1.2089083      332.78348      466.11032     -30603.375    
    477000   1.197171       312.05755      246.14753     -30672.914    
    478000   1.1988062      321.57547      145.01365     -30725.892    
    479000   1.2082564      327.68981      875.14934     -30576.797    
    480000   1.2059513      320.04489      320.27818     -30708.206    
    481000   1.2025078      321.97429     -422.52404     -30685.014    
    482000   1.1945792      319.83122     -221.71919     -30683.618    
    483000   1.2036456      321.48317      429.55943     -30682.177    
    484000   1.1960955      319.64965     -221.58649     -30644.696    
    485000   1.1997975      319.28833      390.29803     -30637.444    
    486000   1.1992839      321.36651     -284.60985     -30627.995    
    487000   1.1965215      319.68393      170.82797     -30656.001    
    488000   1.1974151      317.00251     -909.41977     -30628.133    
    489000   1.1925244      330.25155     -342.63742     -30605.4      
    490000   1.1985861      316.1963       158.93082     -30746.796    
    491000   1.1985166      330.24727      71.319055     -30598.673    
    492000   1.2119614      320.5194      -628.79815     -30744.639    
    493000   1.1880265      320.34123     -1122.5914     -30605.826    
    494000   1.2009416      321.00172     -548.55048     -30679.656    
    495000   1.1998792      314.9548       123.24681     -30725.618    
    496000   1.2049541      310.70128     -109.76279     -30748.298    
    497000   1.198001       319.83679     -495.71716     -30728.782    
    498000   1.1999673      319.30501      157.66699     -30696.443    
    499000   1.2013455      319.35159      1034.1098     -30736.015    
    500000   1.1973737      323.38566     -1136.3189     -30653.895    
    501000   1.1960549      309.75744     -940.01688     -30889.403    
    502000   1.1929017      323.84417     -344.49769     -30603.309    
    503000   1.200381       321.43028     -321.03046     -30657.803    
    504000   1.1910001      332.67038     -37.343229     -30612.268    
    505000   1.1965074      315.6826      -85.153444     -30653.751    
    506000   1.1914416      316.11817     -88.943049     -30640.161    
    507000   1.1929504      332.5292      -640.10278     -30621.464    
    508000   1.1985658      322.77959      4.9902838     -30676.155    
    509000   1.2032762      325.29975      860.17916     -30728.376    
    510000   1.2106518      326.07133      798.42936     -30710.505    
    511000   1.2039117      318.80124      299.51575     -30672.179    
    512000   1.2022504      326.1769      -219.07618     -30648.958    
    513000   1.202621       322.55399      87.302025     -30671.886    
    514000   1.2080059      329.38945     -327.44865     -30639.085    
    515000   1.2071951      327.45605     -400.5662      -30707.851    
    516000   1.2018592      320.73048     -333.22298     -30648.853    
    517000   1.201262       315.35867     -870.55669     -30703.816    
    518000   1.1914152      318.93366     -283.03089     -30653.61     
    519000   1.1979187      311.22954      415.10909     -30814.282    
    520000   1.1896578      325.17604     -520.85473     -30632.287    
    521000   1.1934771      329.79603     -374.11096     -30590.018    
    522000   1.2019889      319.75258      52.643326     -30708.915    
    523000   1.1950683      313.4         -539.82437     -30648.202    
    524000   1.203477       319.80187      591.0813      -30731.63     
    525000   1.2074982      324.96738     -130.90091     -30708.328    
    526000   1.2083969      322.8338       95.284652     -30636.249    
    527000   1.1982785      322.33209      358.64771     -30738.356    
    528000   1.2157435      320.09133      634.81075     -30710.063    
    529000   1.2154711      320.13283      1126.4554     -30710.712    
    530000   1.2049842      327.17295      491.96314     -30708.482    
    531000   1.1933836      322.1871      -605.30183     -30697.967    
    532000   1.1944158      328.89303     -552.74198     -30560.57     
    533000   1.1849731      320.27592     -482.51107     -30586.813    
    534000   1.211881       316.95355      110.23202     -30788.598    
    535000   1.2065248      317.6802      -491.15528     -30739.091    
    536000   1.2056136      317.94243      36.48823      -30731.111    
    537000   1.1826557      320.23357     -560.21234     -30651.671    
    538000   1.2004329      314.05534     -416.94681     -30638.459    
    539000   1.2029329      317.58818      170.86879     -30733.778    
    540000   1.2023674      322.08603     -409.66287     -30682.988    
    541000   1.2111386      309.05013      148.54019     -30762.457    
    542000   1.2112853      325.79422      846.99378     -30732.423    
    543000   1.1970429      318.15266      180.33214     -30650.468    
    544000   1.205663       318.98158      522.03329     -30762.127    
    545000   1.1949133      326.80658      416.14708     -30614.465    
    546000   1.2021976      330.26827     -134.75548     -30666.767    
    547000   1.1971408      325.10694     -320.02187     -30627.858    
    548000   1.2142883      322.40563      86.281827     -30711.521    
    549000   1.202193       315.70532      49.832488     -30671.334    
    550000   1.1894255      329.00638     -714.38465     -30574.843    
    551000   1.1849032      316.01556     -661.7031      -30755.338    
    552000   1.193658       327.76845      37.778403     -30617.624    
    553000   1.2103629      323.78867     -21.287139     -30684.519    
    554000   1.1948999      316.39852      1072.1132     -30701.267    
    555000   1.183817       315.82901     -1361.7588     -30572.945    
    556000   1.196886       328.81266     -425.12802     -30601.85     
    557000   1.1863106      324.40413     -811.48514     -30681.24     
    558000   1.1959916      319.5026      -815.69        -30618.066    
    559000   1.2081435      313.52076      478.39875     -30692.312    
    560000   1.198691       322.57636      325.31904     -30653.607    
    561000   1.194124       325.30329     -1212.8633     -30568.472    
    562000   1.2001427      317.03036     -650.96187     -30684.079    
    563000   1.1965972      320.13615     -294.1878      -30737.221    
    564000   1.1934686      324.57452      177.21978     -30563.499    
    565000   1.202985       323.2378       1267.366      -30688.761    
    566000   1.2060021      322.05989      144.58157     -30699.332    
    567000   1.1970051      322.73016     -240.78752     -30639.82     
    568000   1.1959563      325.79836     -458.54004     -30648.061    
    569000   1.1837103      315.29105     -1018.2778     -30615.134    
    570000   1.2005363      322.81024     -132.41935     -30702.482    
    571000   1.1980881      321.96629     -676.1912      -30745.341    
    572000   1.1981927      321.65731     -249.38076     -30725.88     
    573000   1.1998611      318.00346      561.32117     -30614.111    
    574000   1.1948516      319.35665     -650.54768     -30602.9      
    575000   1.2073799      325.21663      851.81969     -30781.073    
    576000   1.2080442      317.38327     -414.39125     -30824.226    
    577000   1.212227       324.68333      622.89518     -30743.188    
    578000   1.2091816      316.46891      913.11772     -30709.313    
    579000   1.2173697      330.42663      750.58577     -30644.068    
    580000   1.200977       319.07406     -269.10287     -30698.353    
    581000   1.1976537      318.91576     -982.95717     -30660.884    
    582000   1.1761513      326.46724     -1177.0505     -30551.263    
    583000   1.2026929      327.52033     -809.31548     -30679.436    
    584000   1.1848669      319.99081     -313.93374     -30605.311    
    585000   1.2026525      330.70972     -210.52525     -30627.062    
    586000   1.1984169      319.77549      517.77615     -30700.094    
    587000   1.2056732      316.13338      329.33296     -30723.773    
    588000   1.2012394      320.23268     -133.26091     -30632.921    
    589000   1.2065985      326.08938      200.52492     -30707.118    
    590000   1.2015711      336.33669      388.91907     -30495.158    
    591000   1.2048094      324.47878      790.77724     -30627.293    
    592000   1.209608       315.10324      880.7819      -30719.59     
    593000   1.2015937      316.52674      200.28806     -30736.222    
    594000   1.2134384      322.32774      897.73985     -30695.758    
    595000   1.2037709      322.19165      595.32922     -30654.419    
    596000   1.2028994      326.14933      343.62492     -30596.501    
    597000   1.2024429      308.84047      672.83507     -30791.8      
    598000   1.199141       314.16573     -479.75054     -30752.54     
    599000   1.2072572      314.7474      -71.804486     -30808.164    
    600000   1.1942642      320.37554     -831.32834     -30704.812    
    601000   1.2099146      319.41977      779.46493     -30646.579    
    602000   1.1980981      325.28961      217.21965     -30671.479    
    603000   1.1896605      310.96005     -920.84831     -30835.625    
    604000   1.1957674      314.38235      263.73536     -30694.447    
    605000   1.201655       323.16902     -156.63964     -30720.376    
    606000   1.1919007      320.64425     -11.971173     -30680.29     
    607000   1.2084884      319.55171     -546.10579     -30713.619    
    608000   1.2003864      332.84796      288.31665     -30764.484    
    609000   1.2038426      316.7167      -287.86932     -30742.048    
    610000   1.2025804      317.72009     -239.63879     -30754.903    
    611000   1.2075301      319.2074       1112.2539     -30742.624    
    612000   1.201107       313.08984      338.19661     -30643.363    
    613000   1.1976376      315.86361      648.61344     -30686.096    
    614000   1.1977299      325.51806     -166.38539     -30672.652    
    615000   1.2039879      317.30645     -1074.4036     -30762.202    
    616000   1.1962473      322.02402     -933.25538     -30642.354    
    617000   1.1971293      323.12613      118.45145     -30620.91     
    618000   1.2042699      330.89539      1325.2512     -30698.557    
    619000   1.1948011      313.81226     -713.7361      -30795.459    
    620000   1.2079092      323.86512      158.13152     -30726.573    
    621000   1.1879272      325.16006     -713.48921     -30545.862    
    622000   1.1915414      316.39769     -196.07936     -30739.881    
    623000   1.1968915      313.9206      -386.36151     -30722.444    
    624000   1.1924538      318.34325     -389.63333     -30711.774    
    625000   1.2023544      324.40139      281.20019     -30746.994    
    626000   1.2049559      315.45428      102.30941     -30666.587    
    627000   1.1955837      321.63961     -112.09838     -30637.889    
    628000   1.1982521      318.55838      115.30146     -30723.977    
    629000   1.2051177      315.46862      106.56305     -30693.686    
    630000   1.2027033      319.14899     -150.44183     -30775.052    
    631000   1.2032046      317.84423      298.00653     -30650.258    
    632000   1.1940411      323.18517      183.37597     -30679.439    
    633000   1.1992027      324.61056      341.79448     -30667.598    
    634000   1.1961055      319.37191     -672.92903     -30693.917    
    635000   1.1971796      323.82902     -352.01162     -30637.66     
    636000   1.2034552      323.45139      520.31092     -30641.409    
    637000   1.2032027      326.12524      766.46162     -30659.779    
    638000   1.2095965      314.70382      872.66899     -30713.849    
    639000   1.199442       319.09492     -652.72569     -30626.374    
    640000   1.1957423      315.29908      243.54421     -30708.766    
    641000   1.1969708      311.48623     -631.97159     -30754.863    
    642000   1.1995079      319.66169      6.3570326     -30632.118    
    643000   1.1946398      320.72643     -604.38772     -30699.605    
    644000   1.1967875      315.05028     -709.14664     -30723.65     
    645000   1.19288        322.77341     -318.24053     -30658.073    
    646000   1.1927054      325.70139      657.84213     -30587.174    
    647000   1.1934624      326.72154     -365.68685     -30634.138    
    648000   1.1964496      318.52262     -692.86198     -30688.648    
    649000   1.2031292      317.18631      108.7072      -30730.671    
    650000   1.2004877      311.34579     -577.89455     -30762.048    
    651000   1.2087399      327.29374     -660.74696     -30675.386    
    652000   1.2064775      320.93479      1372.1321     -30633.737    
    653000   1.1991166      316.47904     -442.19334     -30633.209    
    654000   1.2022759      324.73034     -641.93915     -30692.731    
    655000   1.202966       326.25073     -93.292664     -30714.785    
    656000   1.2030259      308.34963     -753.33296     -30770.389    
    657000   1.196135       319.71176     -95.786462     -30687.065    
    658000   1.1905411      323.329       -484.9923      -30716.496    
    659000   1.2052361      325.12476      45.403021     -30651.02     
    660000   1.1953313      322.37937     -123.78755     -30652.679    
    661000   1.2059151      319.9389      -190.60419     -30704.324    
    662000   1.1951575      315.90318     -744.70277     -30746.501    
    663000   1.2042766      322.42537     -566.8952      -30695.857    
    664000   1.1930041      329.10141     -842.49007     -30650.143    
    665000   1.19872        322.40906     -148.1535      -30738.57     
    666000   1.1941995      329.66282     -179.25823     -30598.383    
    667000   1.2029149      321.98803      356.93485     -30689.755    
    668000   1.2090214      322.41141      446.45705     -30661.565    
    669000   1.2044891      314.43147      486.8775      -30739.485    
    670000   1.2057346      317.14528      288.1945      -30802.338    
    671000   1.1922715      326.02529      95.952699     -30739.108    
    672000   1.1951017      308.69358     -362.36185     -30817.084    
    673000   1.1938746      325.24998      269.85803     -30541.966    
    674000   1.2060123      327.17835      884.96509     -30569.867    
    675000   1.2020732      316.44901      48.100834     -30749.283    
    676000   1.1952907      309.08378     -885.60394     -30823.314    
    677000   1.2108251      324.22629      592.56497     -30734.06     
    678000   1.2053645      312.19504     -695.5859      -30718.208    
    679000   1.1996948      318.09263      574.09589     -30677.589    
    680000   1.1987407      321.92579      912.30239     -30646.331    
    681000   1.2085969      326.80823      325.36689     -30717.127    
    682000   1.1972506      316.07813     -367.34518     -30793.961    
    683000   1.2102352      317.29646      696.62049     -30695.604    
    684000   1.215469       317.92531      653.84426     -30724.553    
    685000   1.2010127      318.80304      487.71065     -30669.8      
    686000   1.2094397      317.55204      1462.8718     -30661.358    
    687000   1.2018267      319.16922     -37.444166     -30659.218    
    688000   1.2095991      323.62858      131.69128     -30637.066    
    689000   1.2155945      327.75867      12.850332     -30654.535    
    690000   1.201049       320.82849     -587.51888     -30660.297    
    691000   1.1964219      328.94534     -414.34582     -30539.24     
    692000   1.1867549      323.5396      -432.75229     -30691.804    
    693000   1.2036384      319.71372     -452.31769     -30721.275    
    694000   1.1881195      326.47793     -435.6586      -30542.453    
    695000   1.1878368      319.76437      88.151612     -30631.629    
    696000   1.1908685      328.32688     -1710.2997     -30588.051    
    697000   1.189959       327.70341     -371.29777     -30569.033    
    698000   1.1972501      325.43654      205.99685     -30739.651    
    699000   1.1926218      321.7536       380.22045     -30742.779    
    700000   1.2040824      312.44236      536.47294     -30762.22     
    701000   1.2136317      318.355        440.02935     -30716.664    
    702000   1.1971086      329.54081     -123.17262     -30604.71     
    703000   1.1912998      328.64889     -112.36542     -30667.039    
    704000   1.2000308      324.21134      180.95713     -30691.784    
    705000   1.2051102      318.86127     -299.7361      -30692.827    
    706000   1.1977378      319.45048     -1089.6337     -30687.332    
    707000   1.1951483      327.21184     -646.60292     -30600.161    
    708000   1.1906398      317.35336     -188.34148     -30676.43     
    709000   1.1780395      326.61843     -1487.0444     -30611.899    
    710000   1.1897982      323.46838      575.94874     -30597.678    
    711000   1.2041246      320.51806      799.64882     -30646.292    
    712000   1.2002908      310.03297     -760.44514     -30660.4      
    713000   1.2037338      319.45011      687.40176     -30732.335    
    714000   1.2055716      314.55         464.18827     -30740.869    
    715000   1.2116652      323.77474      668.97475     -30582.971    
    716000   1.1978797      309.58893     -807.11429     -30638.12     
    717000   1.2040082      316.83488     -28.597304     -30758.504    
    718000   1.1980241      326.97716     -830.73483     -30681.169    
    719000   1.1928079      309.16628     -352.64604     -30738.119    
    720000   1.1987631      322.08637     -57.048234     -30649.452    
    721000   1.2024806      319.38494     -634.62957     -30635.141    
    722000   1.1959881      313.43739     -1054.7941     -30713.57     
    723000   1.197209       312.99791     -211.96744     -30780.329    
    724000   1.1962169      331.05559      454.0558      -30626.657    
    725000   1.1994629      330.53782      598.97963     -30582.408    
    726000   1.2121532      313.77825      162.00774     -30743.494    
    727000   1.1976213      325.10951     -279.98334     -30636.118    
    728000   1.1872992      316.63869     -1255.2044     -30713.489    
    729000   1.1926377      318.75363     -126.57242     -30735.534    
    730000   1.1950865      316.42196     -354.72116     -30778.623    
    731000   1.2062851      326.71937     -151.76008     -30690.687    
    732000   1.1947359      328.59525      271.40788     -30539.872    
    733000   1.1924397      322.28311     -306.6247      -30601.83     
    734000   1.2042351      323.66152     -687.89952     -30687.036    
    735000   1.1988506      320.2555       289.78839     -30737.249    
    736000   1.1971514      320.49019     -402.7101      -30662.448    
    737000   1.196622       320.23174     -241.83286     -30730.111    
    738000   1.1845251      326.27443     -67.935121     -30562.075    
    739000   1.2056825      310.02355     -617.39551     -30807.168    
    740000   1.1974839      315.66602      360.41512     -30727.818    
    741000   1.204161       325.57929     -515.65103     -30708.981    
    742000   1.2117452      316.68039      429.12791     -30840.468    
    743000   1.1979167      313.17666      250.32825     -30752.022    
    744000   1.2063788      305.87915      169.02602     -30770.295    
    745000   1.2007937      320.59317     -675.24212     -30754.277    
    746000   1.2058631      316.96623     -893.28661     -30720.568    
    747000   1.1956845      326.9154       160.12749     -30643.1      
    748000   1.1940329      319.39093      40.798479     -30687.44     
    749000   1.1953142      324.37081     -680.39276     -30650.484    
    750000   1.2006334      319.73233      582.68201     -30704.24     
    751000   1.1925157      320.99122     -30.710084     -30687.746    
    752000   1.1960591      312.37306      234.27911     -30740.104    
    753000   1.1997029      328.86761      151.25972     -30650.875    
    754000   1.1996188      320.46333     -176.97152     -30648.024    
    755000   1.195735       319.7882      -6.7125584     -30599.166    
    756000   1.2048765      330.98873      276.79168     -30631.636    
    757000   1.2111624      324.86678      63.049001     -30741.124    
    758000   1.2176157      323.60747     -613.57669     -30693.306    
    759000   1.2019478      322.64381     -25.970791     -30650.602    
    760000   1.2044539      321.3681      -52.911407     -30730.381    
    761000   1.2064185      333.72751      210.41894     -30510.26     
    762000   1.1963817      314.79444      442.76711     -30712.002    
    763000   1.2037762      315.00418     -239.95082     -30836.448    
    764000   1.2046198      332.47785      633.78691     -30630.373    
    765000   1.2095198      325.747       -1118.3561     -30635.734    
    766000   1.2052973      318.05828     -61.491568     -30769.415    
    767000   1.2009141      317.25185     -645.74204     -30765.766    
    768000   1.2038496      319.69594      105.47933     -30615.727    
    769000   1.2027536      316.86068     -251.79728     -30716.293    
    770000   1.1939043      326.08431     -87.481044     -30585.476    
    771000   1.2051094      312.96253      706.39245     -30785.434    
    772000   1.2121494      328.32414      1012.8458     -30618.652    
    773000   1.2099442      323.4536       425.12385     -30720.217    
    774000   1.1987325      326.40755     -287.37248     -30687.668    
    775000   1.1973315      325.78868      8.735544      -30639.953    
    776000   1.1985277      321.63179     -371.4246      -30735.325    
    777000   1.20088        325.48281     -334.4179      -30729.075    
    778000   1.1959143      322.52807     -489.93902     -30694.396    
    779000   1.1883095      321.96239     -581.41697     -30674.425    
    780000   1.1963058      313.69078     -1160.5901     -30765.107    
    781000   1.1909336      322.28153     -1281.1528     -30660.349    
    782000   1.2067386      319.58134      240.06248     -30761.654    
    783000   1.1997998      314.45179     -1237.8824     -30718.076    
    784000   1.2076612      316.17583      932.53992     -30752.529    
    785000   1.2011771      316.59077      768.53162     -30796.688    
    786000   1.2067755      318.07368      140.63559     -30777.412    
    787000   1.2159129      311.35306      916.03815     -30742.215    
    788000   1.2053706      316.87006      427.97349     -30730.909    
    789000   1.2047863      319.82247      191.76341     -30699.883    
    790000   1.1947276      334.74363     -609.32218     -30644.359    
    791000   1.189309       326.22167     -436.48233     -30556.829    
    792000   1.1907585      321.41413     -338.81727     -30710.325    
    793000   1.1946278      308.60737     -390.61083     -30687.227    
    794000   1.2021675      321.22462      410.33788     -30649.328    
    795000   1.2071186      319.03054      40.983308     -30695.131    
    796000   1.2062026      315.4769       668.70959     -30676.267    
    797000   1.2093697      318.21987      425.53563     -30801.845    
    798000   1.2074452      320.19504      165.98525     -30757.249    
    799000   1.2187954      311.60666      954.88554     -30843.059    
    800000   1.210009       324.25021      851.83564     -30676.946    
    801000   1.2136952      317.91897      346.01337     -30795.46     
    802000   1.1942588      318.69502      363.41798     -30726.006    
    803000   1.2004046      327.59888     -529.72553     -30629.171    
[...]
  10291000   1.2007826      315.2845      -21.079633     -30731.855    
  10292000   1.2007826      322.70636     -54.605377     -30651.083    
  10293000   1.2007826      317.64259      52.607403     -30599.595    
  10294000   1.2007826      316.15645     -440.48059     -30703.794    
  10295000   1.2007826      318.59541      345.60595     -30694.059    
  10296000   1.2007826      313.8796      -508.56788     -30732.932    
  10297000   1.2007826      318.21362      266.77263     -30695.58     
  10298000   1.2007826      324.50427     -226.32155     -30595.533    
  10299000   1.2007826      322.12939     -359.8746      -30497.713    
  10300000   1.2007826      324.16543      503.81555     -30586.964    
  10301000   1.2007826      318.46811     -432.97641     -30594.261    
  10302000   1.2007826      312.66118      391.205       -30660.038    
  10303000   1.2007826      323.7883       710.91622     -30554.829    
  10304000   1.2007826      320.6424       248.51173     -30528.292    
  10305000   1.2007826      324.32866     -776.7989      -30528.556    
  10306000   1.2007826      320.20955      102.27507     -30625.62     
  10307000   1.2007826      310.13795      35.387435     -30618.178    
  10308000   1.2007826      323.0904      -459.67893     -30443.001    
  10309000   1.2007826      322.51991     -486.90269     -30535.785    
  10310000   1.2007826      327.9814       689.83534     -30646.965    
  10311000   1.2007826      318.06674     -859.68198     -30707.925    
  10312000   1.2007826      315.01334     -197.92482     -30726.336    
  10313000   1.2007826      324.62003      177.31284     -30616.437    
  10314000   1.2007826      318.77879      359.34141     -30642.721    
  10315000   1.2007826      326.24882     -47.717855     -30553.4      
  10316000   1.2007826      322.15605     -43.163751     -30602.575    
  10317000   1.2007826      324.82392      759.8564      -30624.622    
  10318000   1.2007826      325.44159     -304.58187     -30616.535    
  10319000   1.2007826      314.07145      134.31201     -30636.294    
  10320000   1.2007826      318.34167      299.44482     -30598.261    
  10321000   1.2007826      313.46964      123.97052     -30744.706    
  10322000   1.2007826      325.25814      133.60392     -30540.17     
  10323000   1.2007826      322.22856      1109.8917     -30568.537    
  10324000   1.2007826      314.56533      80.606654     -30667.124    
  10325000   1.2007826      329.28469      100.5626      -30544.705    
  10326000   1.2007826      319.133       -23.88777      -30640.71     
  10327000   1.2007826      314.59725     -432.68165     -30706.097    
  10328000   1.2007826      325.28662      1109.9532     -30520.076    
  10329000   1.2007826      321.05071      66.994569     -30592.051    
  10330000   1.2007826      309.32476     -106.77118     -30728.395    
  10331000   1.2007826      321.40287      1097.5168     -30580.587    
  10332000   1.2007826      323.52775      241.66674     -30552.477    
  10333000   1.2007826      326.89835      2.5081763     -30590.283    
  10334000   1.2007826      316.17617     -185.32967     -30656.022    
  10335000   1.2007826      326.33306     -212.56432     -30580.939    
  10336000   1.2007826      327.97559     -421.72102     -30650.364    
  10337000   1.2007826      314.09927     -1051.216      -30623.78     
  10338000   1.2007826      320.77137      199.3851      -30577.293    
  10339000   1.2007826      317.74754      458.44383     -30522.92     
  10340000   1.2007826      320.91333      288.80666     -30582.382    
  10341000   1.2007826      323.83014     -221.4893      -30626.603    
  10342000   1.2007826      322.69919     -27.373354     -30610.58     
  10343000   1.2007826      320.33052     -5.0333506     -30627.318    
  10344000   1.2007826      319.09029      252.74843     -30696.098    
  10345000   1.2007826      316.83582      22.049484     -30707.533    
  10346000   1.2007826      317.18928     -251.94037     -30654.415    
  10347000   1.2007826      324.26015      75.306727     -30557.019    
  10348000   1.2007826      316.54274      157.36347     -30570.308    
  10349000   1.2007826      321.39582      227.9845      -30531.329    
  10350000   1.2007826      319.14008      540.62764     -30645.338    
  10351000   1.2007826      319.27076     -411.1445      -30699.663    
  10352000   1.2007826      321.85883      18.626402     -30589.441    
  10353000   1.2007826      327.6779       635.21358     -30525.82     
  10354000   1.2007826      310.79659     -886.81614     -30619.529    
  10355000   1.2007826      324.24474      61.817708     -30625.079    
  10356000   1.2007826      321.47799      348.87482     -30627.904    
  10357000   1.2007826      323.3089       51.871061     -30686.576    
  10358000   1.2007826      312.25106     -305.32396     -30744.153    
  10359000   1.2007826      334.00522     -637.50548     -30519.605    
  10360000   1.2007826      328.22643      377.81486     -30572.379    
  10361000   1.2007826      312.65469      485.59803     -30702.37     
  10362000   1.2007826      327.41109     -336.27859     -30550.802    
  10363000   1.2007826      326.48812     -621.20817     -30493.779    
  10364000   1.2007826      319.88658      328.86999     -30622.621    
  10365000   1.2007826      316.58707      967.13894     -30574.142    
  10366000   1.2007826      313.88662     -718.60169     -30668.793    
  10367000   1.2007826      321.27037     -562.61679     -30566.368    
  10368000   1.2007826      316.047        362.81728     -30617.12     
  10369000   1.2007826      317.35438     -1234.0138     -30740.225    
  10370000   1.2007826      317.74134     -893.7071      -30625.747    
  10371000   1.2007826      321.8004       508.93286     -30634.719    
  10372000   1.2007826      315.44484      494.20188     -30596.779    
  10373000   1.2007826      329.45616     -313.90246     -30563.827    
  10374000   1.2007826      317.32204     -197.351       -30602.579    
  10375000   1.2007826      315.86764      223.98317     -30683.387    
  10376000   1.2007826      327.60308      556.73952     -30631.575    
  10377000   1.2007826      318.75013      411.63099     -30635.034    
  10378000   1.2007826      320.65272      530.91821     -30634.482    
  10379000   1.2007826      314.9643      -132.5545      -30725.245    
  10380000   1.2007826      315.73629      88.68512      -30604.473    
  10381000   1.2007826      317.9151       535.0494      -30593.421    
  10382000   1.2007826      324.11349      253.91594     -30568.098    
  10383000   1.2007826      320.71934      0.3144072     -30620.594    
  10384000   1.2007826      318.20783      291.03059     -30617.762    
  10385000   1.2007826      318.20998     -118.46467     -30609.416    
  10386000   1.2007826      317.98312      263.36708     -30586.907    
  10387000   1.2007826      325.74657     -608.75406     -30528.442    
  10388000   1.2007826      324.55721      331.58821     -30603.014    
  10389000   1.2007826      310.37014      199.28306     -30694.391    
  10390000   1.2007826      319.44382      548.99763     -30605.612    
  10391000   1.2007826      309.6493      -139.30656     -30703.534    
  10392000   1.2007826      319.12793     -161.67662     -30499.216    
  10393000   1.2007826      319.15581     -531.23263     -30590.848    
  10394000   1.2007826      325.46155      565.43335     -30593.223    
  10395000   1.2007826      323.08081      596.20816     -30506.996    
  10396000   1.2007826      323.22349     -202.70246     -30620.694    
  10397000   1.2007826      322.17343      603.00283     -30613.647    
  10398000   1.2007826      308.16644     -201.10853     -30745.031    
  10399000   1.2007826      318.49967      48.228046     -30640.475    
  10400000   1.2007826      323.51895     -20.283645     -30614.195    
  10401000   1.2007826      318.33825     -89.120625     -30720.187    
  10402000   1.2007826      324.60803     -162.44147     -30595.464    
  10403000   1.2007826      324.34381     -227.26824     -30591.059    
  10404000   1.2007826      318.38639     -248.49769     -30650.871    
  10405000   1.2007826      315.43756     -161.31911     -30701.273    
  10406000   1.2007826      323.77792     -274.09691     -30617.517    
  10407000   1.2007826      324.83815      134.80622     -30698.781    
  10408000   1.2007826      320.11398      347.88716     -30612.147    
  10409000   1.2007826      316.36656      66.272331     -30722.661    
  10410000   1.2007826      324.46121     -31.199887     -30647.441    
  10411000   1.2007826      323.54292      792.3304      -30632.933    
  10412000   1.2007826      323.12109      270.56933     -30569.467    
  10413000   1.2007826      319.63838      227.64152     -30660.305    
  10414000   1.2007826      329.06009      61.163411     -30645.12     
  10415000   1.2007826      316.42771      514.43632     -30656.432    
  10416000   1.2007826      317.9264       3.3980047     -30654.126    
  10417000   1.2007826      321.5793      -758.08643     -30644.419    
  10418000   1.2007826      326.3562       631.71849     -30541.72     
  10419000   1.2007826      319.32752     -473.64998     -30640.762    
  10420000   1.2007826      323.39007     -267.85609     -30652.277    
  10421000   1.2007826      317.07171      286.38408     -30585.6      
  10422000   1.2007826      315.47348      584.86549     -30740.459    
  10423000   1.2007826      316.368        235.05124     -30659.542    
  10424000   1.2007826      318.146        150.58235     -30721.203    
  10425000   1.2007826      318.8326       241.79198     -30725.85     
  10426000   1.2007826      315.35412     -64.458781     -30627.484    
  10427000   1.2007826      317.10915      140.36422     -30607.071    
  10428000   1.2007826      321.58389     -181.35175     -30690.57     
  10429000   1.2007826      324.52522      872.5582      -30555.492    
  10430000   1.2007826      319.20482     -770.89136     -30597.871    
  10431000   1.2007826      315.39415      704.5982      -30587.005    
  10432000   1.2007826      325.73426      15.083318     -30521.006    
  10433000   1.2007826      322.79918     -386.49591     -30576.825    
  10434000   1.2007826      324.14164      209.05894     -30487.933    
  10435000   1.2007826      329.70577     -961.30348     -30474.872    
  10436000   1.2007826      311.67015     -345.92777     -30695.569    
  10437000   1.2007826      307.41822     -480.24583     -30673.643    
  10438000   1.2007826      318.94704     -755.31249     -30584.5      
  10439000   1.2007826      320.33989     -716.61131     -30648.56     
  10440000   1.2007826      316.69281     -134.15125     -30587.115    
  10441000   1.2007826      315.80368     -126.41853     -30609.15     
  10442000   1.2007826      313.65311      206.4873      -30654.659    
  10443000   1.2007826      328.65862      416.57082     -30560.748    
  10444000   1.2007826      319.73838      81.376601     -30661.607    
  10445000   1.2007826      321.65468      574.10272     -30609.746    
  10446000   1.2007826      324.73754      868.99319     -30599.144    
  10447000   1.2007826      326.07285      773.53292     -30672.944    
  10448000   1.2007826      321.93647      657.2459      -30691.582    
  10449000   1.2007826      320.98198      947.88999     -30646.085    
  10450000   1.2007826      315.33202     -249.98902     -30662.826    
  10451000   1.2007826      322.61827      483.56963     -30559.757    
  10452000   1.2007826      322.06023      186.77099     -30626.37     
  10453000   1.2007826      314.82908      376.96066     -30648.515    
  10454000   1.2007826      318.15364      102.77879     -30528.707    
  10455000   1.2007826      315.20311     -281.54231     -30587.671    
  10456000   1.2007826      329.97689      1064.3341     -30536.606    
  10457000   1.2007826      321.00464      1009.0558     -30637.387    
  10458000   1.2007826      319.8659       281.1399      -30665.2      
  10459000   1.2007826      318.11831     -253.90058     -30754.271    
  10460000   1.2007826      323.21097      42.384319     -30582.497    
  10461000   1.2007826      333.20384      320.2261      -30516.93     
  10462000   1.2007826      314.37456      684.52047     -30679.382    
  10463000   1.2007826      323.105       -381.68949     -30671.283    
  10464000   1.2007826      324.51348     -142.87726     -30693.81     
  10465000   1.2007826      328.23059      117.29559     -30599.107    
  10466000   1.2007826      315.92056      647.17386     -30733.143    
  10467000   1.2007826      319.53972      818.88883     -30552.781    
  10468000   1.2007826      326.33014     -99.980918     -30536.712    
  10469000   1.2007826      321.26626     -78.585563     -30594.709    
  10470000   1.2007826      320.89964     -78.595844     -30614.386    
  10471000   1.2007826      326.2667      -96.354753     -30542.252    
  10472000   1.2007826      317.45521     -102.5022      -30579.175    
  10473000   1.2007826      326.9674      -182.9373      -30577.309    
  10474000   1.2007826      319.50422     -294.44524     -30635.593    
  10475000   1.2007826      324.25349      124.37833     -30611.85     
  10476000   1.2007826      326.16587     -602.25305     -30643.597    
  10477000   1.2007826      323.11146      82.385672     -30589.65     
  10478000   1.2007826      314.36083     -664.49658     -30603.958    
  10479000   1.2007826      321.69228      1216.1865     -30558.692    
  10480000   1.2007826      326.03825      448.6295      -30501.637    
  10481000   1.2007826      320.40477     -530.27896     -30583.375    
  10482000   1.2007826      316.23738     -1191.7028     -30643.456    
  10483000   1.2007826      318.28481     -584.89742     -30556.586    
  10484000   1.2007826      322.89098      463.44696     -30687.56     
  10485000   1.2007826      323.31028     -25.259731     -30534.123    
  10486000   1.2007826      316.90371      315.79147     -30631.818    
  10487000   1.2007826      323.21254      414.69086     -30538.931    
  10488000   1.2007826      333.64832     -763.13631     -30450.427    
  10489000   1.2007826      316.84122      320.0416      -30575.866    
  10490000   1.2007826      313.36431     -571.4638      -30715.215    
  10491000   1.2007826      325.37691     -369.35958     -30513.873    
  10492000   1.2007826      319.37319     -911.16214     -30743.609    
  10493000   1.2007826      319.42508     -1164.5336     -30657.726    
  10494000   1.2007826      322.44711      643.43241     -30563.579    
  10495000   1.2007826      312.14863      83.594921     -30676.839    
  10496000   1.2007826      312.67708      418.21143     -30730.169    
  10497000   1.2007826      312.64885     -616.77518     -30741.693    
  10498000   1.2007826      322.123       -492.1661      -30646.202    
  10499000   1.2007826      317.66816      182.28226     -30736.729    
  10500000   1.2007826      320.99522     -761.07382     -30669.546    
  10501000   1.2007826      311.85917     -401.66322     -30654.505    
  10502000   1.2007826      316.73682     -714.905       -30662.12     
  10503000   1.2007826      328.42656     -198.37945     -30640.59     
  10504000   1.2007826      328.31752     -495.08679     -30622.437    
  10505000   1.2007826      322.13208     -386.55789     -30591.784    
  10506000   1.2007826      329.51049     -1155.7285     -30556.619    
  10507000   1.2007826      322.26901      8.3466428     -30638.403    
  10508000   1.2007826      320.09693      232.59819     -30756.16     
  10509000   1.2007826      328.56221     -482.90051     -30598.011    
  10510000   1.2007826      320.0379      -784.45505     -30491.45     
  10511000   1.2007826      315.59251     -332.96049     -30678.927    
  10512000   1.2007826      322.96793     -385.55095     -30664.798    
  10513000   1.2007826      316.63739      725.26309     -30698.225    
  10514000   1.2007826      324.34697      30.673774     -30591.707    
  10515000   1.2007826      325.27487     -244.33113     -30661.146    
  10516000   1.2007826      326.60035      510.45101     -30521.661    
  10517000   1.2007826      313.25717      653.79155     -30742.704    
  10518000   1.2007826      325.67435      247.15084     -30577.402    
  10519000   1.2007826      318.02273      112.32606     -30665.027    
  10520000   1.2007826      326.10541      738.30335     -30578.681    
  10521000   1.2007826      323.75755      625.80871     -30671.539    
  10522000   1.2007826      320.23018      365.79293     -30575.439    
  10523000   1.2007826      327.98628     -45.789506     -30539.115    
  10524000   1.2007826      323.16159      1077.0947     -30473.676    
  10525000   1.2007826      323.49035     -137.83998     -30525.958    
  10526000   1.2007826      318.82269     -84.916297     -30548.266    
  10527000   1.2007826      319.33225     -141.50472     -30670.398    
  10528000   1.2007826      315.98921     -132.40429     -30693.328    
  10529000   1.2007826      317.84326     -730.76055     -30670.686    
  10530000   1.2007826      322.17914     -495.3046      -30531.538    
  10531000   1.2007826      324.00607     -504.53069     -30496.707    
  10532000   1.2007826      319.09982      197.61933     -30639.531    
  10533000   1.2007826      323.25822      690.62146     -30559.562    
  10534000   1.2007826      316.94786      314.60183     -30652.64     
  10535000   1.2007826      328.69932     -739.03627     -30581.916    
  10536000   1.2007826      320.1211      -191.808       -30619.713    
  10537000   1.2007826      315.68311     -407.25232     -30692.523    
  10538000   1.2007826      325.45729      636.54706     -30580.123    
  10539000   1.2007826      314.1021      -431.39362     -30606.019    
  10540000   1.2007826      335.24547      512.85689     -30451.922    
  10541000   1.2007826      315.51328      157.37474     -30609.126    
  10542000   1.2007826      326.44773     -693.04447     -30524.829    
  10543000   1.2007826      317.92163      192.74695     -30616.698    
  10544000   1.2007826      319.26743      559.24222     -30676.195    
  10545000   1.2007826      310.67308      603.18178     -30712.387    
  10546000   1.2007826      329.14884     -315.20526     -30572.571    
  10547000   1.2007826      315.39947      547.12506     -30650.067    
  10548000   1.2007826      328.55145      531.30798     -30530.632    
  10549000   1.2007826      314.95201      215.04792     -30640.696    
  10550000   1.2007826      329.58978     -153.56639     -30519.37     
Loop time of 1477.73 on 32 procs for 500000 steps with 3486 atoms

Performance: 58.468 ns/day, 0.410 hours/ns, 338.357 timesteps/s
99.5% CPU use with 32 MPI tasks x no OpenMP threads

MPI task timing breakdown:
Section |  min time  |  avg time  |  max time  |%varavg| %total
---------------------------------------------------------------
Pair    | 435.66     | 476.93     | 517.96     | 105.0 | 32.27
Bond    | 1.7997     | 1.9367     | 2.0239     |   5.3 |  0.13
Kspace  | 282.74     | 321.26     | 362.8      | 122.7 | 21.74
Neigh   | 166.28     | 173.66     | 184.55     |  37.3 | 11.75
Comm    | 110.19     | 115.82     | 122.28     |  31.1 |  7.84
Output  | 36.436     | 36.477     | 37.55      |   3.2 |  2.47
Modify  | 336.08     | 345.49     | 350.85     |  22.2 | 23.38
Other   |            | 6.149      |            |       |  0.42

Nlocal:        108.938 ave         120 max         100 min
Histogram: 2 5 3 4 3 5 2 3 3 2
Nghost:        4453.88 ave        4486 max        4428 min
Histogram: 3 1 5 5 5 3 5 2 2 1
Neighs:        44718.4 ave       49768 max       39877 min
Histogram: 3 3 3 4 5 1 3 4 3 3

Total # of neighbors = 1430988
Ave neighs/atom = 410.4957
Ave special neighs/atom = 2.0929432
Neighbor list builds = 132211
Dangerous builds = 0

quit
