LAMMPS (23 Jun 2022 - Update 2)
WARNING: Using I/O redirection is unreliable with parallel runs. Better use -in switch to read input file. (../lammps.cpp:530)
####################################################
# Preprocessing Li2SO4 in water
# 1m 298 K and 1 atm
#################### SETTING UP ####################
units real
dimension 3
newton on
boundary p p p
atom_style full

#################### VARIABLES ####################
variable Temp equal 298.15    # Temperature in K
variable Pres equal 1.0       # Pressure in atm.

variable RandomSeed equal 19 # The random seed for velocity
variable tstep equal 2.0      # 1fs
variable Ninptpre equal 10000 # Pre-initialize the NPT ensemble (very small timesteps)
variable Ninpt equal 10000000  # Initialize the NPT ensemble
variable Npnpt equal 10000000  # Production in the NPT ensemble (volume)
variable Ninvtpre equal 10000 # Pre-initialize the NVT ensemble (very small timesteps)
variable Ninvt equal 500000   # Initialize the NVT ensemble
variable Nrun equal 50000     # production in the NVT ensemble (Transport properties) 1ns
variable Nf equal 1000         # Nfreq (fix ave/time and thermo)
variable Ne equal  1         # Nevery (fix ave/time)
variable Nr equal ${Nf}/${Ne} # Nrepeat (fix ave/time)
variable Nr equal 1000/${Ne} 
variable Nr equal 1000/1 
variable NBR equal ${Npnpt}/100 # Block averaging for density (NPT)
variable NBR equal 10000000/100 
variable Nd equal ${Nrun}/10 # Frequency of outputting positions of atoms in the NVT ensemble
variable Nd equal 50000/10 

variable nb equal 10          # Number of blocks (fix ordern)
variable nbe equal 20         # Number of block elements (fix ordern)
variable Nvisc equal 5        # Nevery for viscosity (fix ordern: sample data at (Nvisc*2))
variable Ncond equal 5        # Nevery for Tconductivity (fix ordern: sample data at (Ncond*2))
variable Ndiff equal 1000     # Nevery for diffusivity (fix ordern: sample data at (Ndiff))
variable Nwrit equal 100000   # Nwrite for transport properties (fix ordern: write every (Nwrit))

variable Nrdfe equal 1000     # Nevery for RDF (fix ave/time)
variable Nrdfw equal 1000     # Nwrite for RDF (compute rdf/ext: write every (Nrdfw*Nrdfe))
variable binnum equal 2000    # Number of bins for RDF

#################### ATOM DEFINITION and FORCEFIELD ####################
read_data ./data.lmp                     # read the positions
Reading data file ...
  orthogonal box = (0 0 0) to (31.689281 31.689281 31.689281)
  2 by 2 by 3 MPI processor grid
  reading atoms ...
  3162 atoms
  scanning bonds ...
  4 = max bonds/atom
  scanning angles ...
  6 = max angles/atom
  reading bonds ...
  2108 bonds
  reading angles ...
  1108 angles
Finding 1-2 1-3 1-4 neighbors ...
  special bond factors lj:    0        0        0       
  special bond factors coul:  0        0        0       
     4 = max # of 1-2 neighbors
     3 = max # of 1-3 neighbors
     3 = max # of 1-4 neighbors
     4 = max # of special neighbors
  special bonds CPU = 0.003 seconds
  read_data CPU = 0.030 seconds
include ./forcefield.data                # read the force field
#--------INTERMOLECULAR POTENTIAL -------------------#
# ---------------Developed for Li2SO4 in water (tip4p/2005) system-----#

mass 1 15.9994 # Ow
mass 2 1.008 # Hw
mass 3 6.891  # Li  -0.01, which went to ghost
mass 4 0.05 # m ghost of lithium
mass 5 0.05 # S  Center site without weight
mass 6 24.00315 # Os (added sulfur weight)


pair_style lj/cut/tip4p/long 1 2 1 1 0.1546 10.0
kspace_style pppm/tip4p 1.0e-5
pair_modify mix arithmetic tail yes # ATC and Lorentz-Berthelot combining rules

#-----------------Combinations----------------------------
# atomtype atomtype epsilon sigma

pair_coeff 1 1 0.185200 3.1589     # Ow-Ow
pair_coeff 1 2 0.000000 0.0000     # Ow-Hw
pair_coeff 1 3 0.167459 2.12       # Ow-Li
pair_coeff 1 4 0.000000 0.0000     # Ow-m
pair_coeff 1 5 0.215246 3.35445    # Ow-S  COMPUTE BY HAND LB mix
pair_coeff 1 6 0.150335 3.40445    # Ow-Os

pair_coeff 2 2 0.000000 0.0000     # Hw-Hw
pair_coeff 2 3 0.000000 0.0000     # Hw-Li
pair_coeff 2 4 0.000000 0.0000     # Hw-m
pair_coeff 2 5 0.000000 0.0000     # Hw-S
pair_coeff 2 6 0.000000 0.0000     # Hw-Os

pair_coeff 3 3 0.103989 1.4397     # Li-Li
pair_coeff 3 4 0.000000 0.0000     # Li-m
pair_coeff 3 5 0.161291 2.49485    # Li-S   COMPUTE BY HAND LB mix
pair_coeff 3 6 0.192067 2.844850   # Li-Os

pair_coeff 4 4 0.000000 0.0000     # m-m
pair_coeff 4 5 0.000000 0.0000     # m-S
pair_coeff 4 6 0.000000 0.0000     # m-Os

pair_coeff 5 5 0.250167 3.5500     # S-S
pair_coeff 5 6 0.223762 3.6000     # S-Os  CHECK BY HAND LB mix

pair_coeff 6 6 0.200143 3.6500     # Os-Os

bond_style  harmonic
bond_coeff 1 2000 0.9572           # Ow-Hw
bond_coeff 2 1000 0.5		   # Li-m
bond_coeff 3 1000 1.490		   # S-Os

angle_style harmonic
angle_coeff 1 200 104.52           # H-Ow-H
angle_coeff 2 200 109.5           # Os-S-Os

#dihedral_style none
#improper_style none

set type 1 charge -1.1128          # O
Setting atom values ...
  1000 settings made for charge
set type 2 charge +0.5564          # OH
Setting atom values ...
  2000 settings made for charge
set type 3 charge +0.8500          # Li
Setting atom values ...
  36 settings made for charge
set type 4 charge 0		   # m
Setting atom values ...
  36 settings made for charge
set type 5 charge +0.9000          # S
Setting atom values ...
  18 settings made for charge
set type 6 charge -0.6500          # Os
Setting atom values ...
  72 settings made for charge


#################### INITIALIZATION ####################
# groups for the central atoms of water (O)

group wat type 1		# O water
1000 atoms in group wat
group Li type 3			# Lithium atom
36 atoms in group Li
group S type 5			# S sulfite group centre
18 atoms in group S

# neigbor lists
neighbor 2.0 bin
neigh_modify every 1 delay 0 check yes

# velocity-Verlet integrator
run_style verlet

# initializing velocities
velocity all create ${Temp} ${RandomSeed}
velocity all create 298.15 ${RandomSeed}
velocity all create 298.15 19

# rate of writing thermal properties to the log file
thermo_style custom step density temp press etotal
thermo_modify flush yes
thermo ${Nf}
thermo 1000

#################### 2) Initialize the NPT ensemble ####################
######### Go to the correct temperature now ant initiate that ##########
fix integrate all rigid/npt/small molecule temp ${Temp} ${Temp} 10.0 iso ${Pres} ${Pres} 100.0
fix integrate all rigid/npt/small molecule temp 298.15 ${Temp} 10.0 iso ${Pres} ${Pres} 100.0
fix integrate all rigid/npt/small molecule temp 298.15 298.15 10.0 iso ${Pres} ${Pres} 100.0
fix integrate all rigid/npt/small molecule temp 298.15 298.15 10.0 iso 1 ${Pres} 100.0
fix integrate all rigid/npt/small molecule temp 298.15 298.15 10.0 iso 1 1 100.0
  create bodies CPU = 0.001 seconds
  1054 rigid bodies with 3162 atoms
  1.4900067 = max distance from body owner to body atom

# add dump trajectory

# Initializing the whole system with very small timesteps in the NPT ensemble
timestep 0.001
run ${Ninptpre}
run 10000
PPPM initialization ...
  extracting TIP4P info from pair style
  using 12-bit tables for long-range coulomb (../kspace.cpp:342)
  G vector (1/distance) = 0.31119582
  grid = 30 30 30
  stencil order = 5
  estimated absolute RMS force accuracy = 0.0035544154
  estimated relative force accuracy = 1.0704016e-05
  using double precision KISS FFT
  3d grid and FFT values/proc = 8228 2700
Generated 0 of 15 mixed pair_coeff terms from arithmetic mixing rule
Neighbor list info ...
  update every 1 steps, delay 0 steps, check yes
  max neighbors/atom: 2000, page size: 100000
  master list distance cutoff = 12.3092
  ghost atom cutoff = 12.3092
  binsize = 6.1546, bins = 6 6 6
  1 neighbor lists, perpetual/occasional/extra = 1 0 0
  (1) pair lj/cut/tip4p/long, perpetual
      attributes: half, newton on
      pair build: half/bin/newton
      stencil: half/bin/3d
      bin: standard
Per MPI rank memory allocation (min/avg/max) = 16.5 | 16.85 | 16.95 Mbytes
   Step        Density          Temp          Press          TotEng    
         0   1.0433267      295.82505      564606.14      3630.8477    
      1000   1.042731       310.75914      59470.229      3614.9433    
      2000   1.0409801      355.61803      57341.467      3566.9888    
      3000   1.03812        426.97591      53718.541      3482.1052    
      4000   1.0342284      518.37889      48541.921      3346.7437    
      5000   1.0294155      622.22725      42335.196      3149.0629    
      6000   1.0238131      735.1642       36565.078      2907.1417    
      7000   1.0175498      850.95041      31165.314      2620.983     
      8000   1.0107519      962.78074      25027.62       2287.8698    
      9000   1.0035574      1064.8326      19312.507      1909.2294    
     10000   0.99609839     1152.9694      14446.407      1492.9953    
Loop time of 90.9978 on 12 procs for 10000 steps with 3162 atoms

Performance: 0.009 ns/day, 2527.715 hours/ns, 109.893 timesteps/s
94.8% CPU use with 12 MPI tasks x no OpenMP threads

MPI task timing breakdown:
Section |  min time  |  avg time  |  max time  |%varavg| %total
---------------------------------------------------------------
Pair    | 51.106     | 54.316     | 59.094     |  28.3 | 59.69
Bond    | 0.21273    | 0.2285     | 0.25958    |   2.5 |  0.25
Kspace  | 13.43      | 18.206     | 21.386     |  48.7 | 20.01
Neigh   | 0.0039642  | 0.0039716  | 0.0039796  |   0.0 |  0.00
Comm    | 1.7032     | 1.7383     | 1.7774     |   1.7 |  1.91
Output  | 0.00063693 | 0.00079507 | 0.0024017  |   0.0 |  0.00
Modify  | 13.022     | 14.826     | 16.226     |  34.9 | 16.29
Other   |            | 1.678      |            |       |  1.84

Nlocal:          263.5 ave         274 max         258 min
Histogram: 4 1 1 1 1 1 2 0 0 1
Nghost:        5510.75 ave        5560 max        5443 min
Histogram: 1 2 0 0 1 1 1 3 1 2
Neighs:         100535 ave      107038 max       95464 min
Histogram: 2 1 0 2 2 2 1 1 0 1

Total # of neighbors = 1206421
Ave neighs/atom = 381.53732
Ave special neighs/atom = 2.0341556
Neighbor list builds = 1
Dangerous builds = 0
timestep 0.01
run ${Ninptpre}
run 10000
PPPM initialization ...
  extracting TIP4P info from pair style
  using 12-bit tables for long-range coulomb (../kspace.cpp:342)
  G vector (1/distance) = 0.31008377
  grid = 30 30 30
  stencil order = 5
  estimated absolute RMS force accuracy = 0.0037217034
  estimated relative force accuracy = 1.1207799e-05
  using double precision KISS FFT
  3d grid and FFT values/proc = 8228 2700
Generated 0 of 15 mixed pair_coeff terms from arithmetic mixing rule
Per MPI rank memory allocation (min/avg/max) = 16.5 | 16.85 | 16.95 Mbytes
   Step        Density          Temp          Press          TotEng    
     10000   0.99609839     1152.9694      3814.3432      1492.9962    
     11000   0.92667706     1147.7875     -8804.7298     -2928.8138    
     12000   0.88676443     815.3401      -10785.617     -5382.6937    
     13000   0.87304816     709.06927     -10901.155     -6964.3877    
     14000   0.88056427     600.82522     -9202.848      -8207.1256    
     15000   0.90551152     550.96209     -8592.625      -9227.4407    
     16000   0.94549349     512.06637     -6491.396      -10127.661    
     17000   0.99457377     503.50511     -3293.6773     -10889.157    
     18000   1.0446729      487.94092      310.87115     -11540.438    
     19000   1.0891122      473.028        3143.8701     -12069.368    
     20000   1.1234507      469.30741      5261.442      -12551.9      
Loop time of 86.5034 on 12 procs for 10000 steps with 3162 atoms

Performance: 0.100 ns/day, 240.287 hours/ns, 115.602 timesteps/s
94.9% CPU use with 12 MPI tasks x no OpenMP threads

MPI task timing breakdown:
Section |  min time  |  avg time  |  max time  |%varavg| %total
---------------------------------------------------------------
Pair    | 48.324     | 51.092     | 55.022     |  29.8 | 59.06
Bond    | 0.2132     | 0.22806    | 0.24209    |   1.9 |  0.26
Kspace  | 13.403     | 17.329     | 20.094     |  51.0 | 20.03
Neigh   | 0.057547   | 0.057621   | 0.057683   |   0.0 |  0.07
Comm    | 1.6843     | 1.7061     | 1.7267     |   1.2 |  1.97
Output  | 0.00065065 | 0.00079655 | 0.0023149  |   0.0 |  0.00
Modify  | 12.62      | 14.423     | 15.826     |  35.4 | 16.67
Other   |            | 1.666      |            |       |  1.93

Nlocal:          263.5 ave         272 max         254 min
Histogram: 1 1 0 3 1 1 1 1 1 2
Nghost:        5799.08 ave        5850 max        5732 min
Histogram: 1 1 0 1 2 2 1 1 1 2
Neighs:         109472 ave      115732 max      103842 min
Histogram: 2 2 1 1 1 0 2 0 0 3

Total # of neighbors = 1313658
Ave neighs/atom = 415.45161
Ave special neighs/atom = 2.0341556
Neighbor list builds = 15
Dangerous builds = 0
timestep 0.1
run ${Ninptpre}
run 10000
PPPM initialization ...
  extracting TIP4P info from pair style
  using 12-bit tables for long-range coulomb (../kspace.cpp:342)
  G vector (1/distance) = 0.31296013
  grid = 30 30 30
  stencil order = 5
  estimated absolute RMS force accuracy = 0.0033031077
  estimated relative force accuracy = 9.9472107e-06
  using double precision KISS FFT
  3d grid and FFT values/proc = 8228 2700
Generated 0 of 15 mixed pair_coeff terms from arithmetic mixing rule
Per MPI rank memory allocation (min/avg/max) = 16.89 | 16.92 | 16.95 Mbytes
   Step        Density          Temp          Press          TotEng    
     20000   1.1234507      469.30741      8808.7193     -12551.891    
     21000   1.160653       315.75955     -194.65916     -15473.833    
     22000   1.1662956      295.54671      1051.4515     -16117.718    
     23000   1.1512089      287.75824      321.30492     -16480.417    
     24000   1.1401716      299.27232     -294.35279     -16441.529    
     25000   1.1282639      305.19268     -202.75097     -16455.43     
     26000   1.1071766      296.02826     -941.302       -16531.309    
     27000   1.1084787      299.05064      557.7577      -16594.484    
     28000   1.0974779      300.96708     -54.190235     -16567.426    
     29000   1.0917606      294.53315     -886.28964     -16657.499    
     30000   1.0967459      304.17646     -113.45064     -16564.471    
Loop time of 98.5758 on 12 procs for 10000 steps with 3162 atoms

Performance: 0.876 ns/day, 27.382 hours/ns, 101.445 timesteps/s
95.2% CPU use with 12 MPI tasks x no OpenMP threads

MPI task timing breakdown:
Section |  min time  |  avg time  |  max time  |%varavg| %total
---------------------------------------------------------------
Pair    | 56.107     | 60.89      | 64.214     |  31.4 | 61.77
Bond    | 0.21708    | 0.23       | 0.24906    |   2.2 |  0.23
Kspace  | 14.69      | 18.001     | 22.755     |  57.7 | 18.26
Neigh   | 0.43497    | 0.43551    | 0.43625    |   0.1 |  0.44
Comm    | 1.8842     | 1.9141     | 1.9442     |   1.1 |  1.94
Output  | 0.00063978 | 0.00078498 | 0.0022882  |   0.0 |  0.00
Modify  | 13.6       | 15.405     | 16.809     |  34.3 | 15.63
Other   |            | 1.699      |            |       |  1.72

Nlocal:          263.5 ave         286 max         245 min
Histogram: 1 2 1 2 1 1 1 2 0 1
Nghost:        5635.75 ave        5686 max        5598 min
Histogram: 2 2 1 1 1 0 3 1 0 1
Neighs:         107404 ave      116693 max      102250 min
Histogram: 4 0 2 2 1 1 0 0 0 2

Total # of neighbors = 1288843
Ave neighs/atom = 407.60373
Ave special neighs/atom = 2.0341556
Neighbor list builds = 96
Dangerous builds = 0
timestep 0.2
run ${Ninptpre}
run 10000
PPPM initialization ...
  extracting TIP4P info from pair style
  using 12-bit tables for long-range coulomb (../kspace.cpp:342)
  G vector (1/distance) = 0.31238815
  grid = 30 30 30
  stencil order = 5
  estimated absolute RMS force accuracy = 0.0033827387
  estimated relative force accuracy = 1.0187017e-05
  using double precision KISS FFT
  3d grid and FFT values/proc = 8228 2700
Generated 0 of 15 mixed pair_coeff terms from arithmetic mixing rule
Per MPI rank memory allocation (min/avg/max) = 16.89 | 16.92 | 16.95 Mbytes
   Step        Density          Temp          Press          TotEng    
     30000   1.0967459      304.17646      3085.5458     -16564.472    
     31000   1.0876959      294.63334     -1203.6723     -16614.056    
     32000   1.095646       286.25628     -184.34813     -16812.542    
     33000   1.0995353      293.36214      877.6205      -16726.301    
     34000   1.0924852      297.29131      469.30406     -16690.144    
     35000   1.0842667      296.06108     -377.07377     -16772.898    
     36000   1.0884382      291.00513     -376.1807      -16831.667    
     37000   1.0979312      290.66803      250.58369     -16789.167    
     38000   1.0948625      298.1242       510.192       -16680.224    
     39000   1.0908889      293.78        -507.61801     -16765.062    
     40000   1.0871641      288.74167     -601.49864     -16852.394    
Loop time of 99.3509 on 12 procs for 10000 steps with 3162 atoms

Performance: 1.739 ns/day, 13.799 hours/ns, 100.653 timesteps/s
94.8% CPU use with 12 MPI tasks x no OpenMP threads

MPI task timing breakdown:
Section |  min time  |  avg time  |  max time  |%varavg| %total
---------------------------------------------------------------
Pair    | 56.618     | 60.551     | 64.144     |  31.5 | 60.95
Bond    | 0.21257    | 0.22993    | 0.23979    |   1.7 |  0.23
Kspace  | 15.156     | 18.755     | 22.682     |  56.6 | 18.88
Neigh   | 0.91881    | 0.92002    | 0.92075    |   0.1 |  0.93
Comm    | 1.8125     | 1.8438     | 1.8698     |   1.1 |  1.86
Output  | 0.00065155 | 0.00079796 | 0.0023271  |   0.0 |  0.00
Modify  | 13.557     | 15.353     | 16.764     |  34.3 | 15.45
Other   |            | 1.697      |            |       |  1.71

Nlocal:          263.5 ave         281 max         244 min
Histogram: 1 0 1 2 1 2 2 2 0 1
Nghost:        5620.25 ave        5657 max        5581 min
Histogram: 2 1 1 2 0 1 0 1 1 3
Neighs:         106449 ave      119874 max       99496 min
Histogram: 1 4 1 2 2 0 0 1 0 1

Total # of neighbors = 1277388
Ave neighs/atom = 403.98102
Ave special neighs/atom = 2.0341556
Neighbor list builds = 214
Dangerous builds = 0
timestep 0.5
run ${Ninptpre}
run 10000
PPPM initialization ...
  extracting TIP4P info from pair style
  using 12-bit tables for long-range coulomb (../kspace.cpp:342)
  G vector (1/distance) = 0.31217911
  grid = 30 30 30
  stencil order = 5
  estimated absolute RMS force accuracy = 0.0034122767
  estimated relative force accuracy = 1.027597e-05
  using double precision KISS FFT
  3d grid and FFT values/proc = 8228 2700
Generated 0 of 15 mixed pair_coeff terms from arithmetic mixing rule
Per MPI rank memory allocation (min/avg/max) = 16.89 | 16.92 | 16.95 Mbytes
   Step        Density          Temp          Press          TotEng    
     40000   1.0871641      288.74167      2067.0334     -16852.395    
     41000   1.0920151      297.62936     -557.82021     -16866.741    
     42000   1.0843717      298.06819     -472.88407     -16787.191    
     43000   1.1027562      298.25219      211.0238      -16849.381    
     44000   1.0857892      302.34422     -10.492416     -16784.556    
     45000   1.087926       298.17528     -1141.7027     -16824.255    
     46000   1.0860463      299.84882      276.06209     -16784        
     47000   1.0842797      288.81113      173.74184     -16882.824    
     48000   1.0700153      288.35376     -435.09902     -16892.375    
     49000   1.0747233      308.4996       771.01598     -16737.418    
     50000   1.0760184      286.74604      196.25388     -16950.306    
Loop time of 101.576 on 12 procs for 10000 steps with 3162 atoms

Performance: 4.253 ns/day, 5.643 hours/ns, 98.449 timesteps/s
94.9% CPU use with 12 MPI tasks x no OpenMP threads

MPI task timing breakdown:
Section |  min time  |  avg time  |  max time  |%varavg| %total
---------------------------------------------------------------
Pair    | 56.823     | 60.86      | 64.864     |  34.7 | 59.92
Bond    | 0.21851    | 0.23003    | 0.24382    |   1.5 |  0.23
Kspace  | 14.859     | 18.873     | 22.909     |  62.3 | 18.58
Neigh   | 2.3768     | 2.3801     | 2.3822     |   0.1 |  2.34
Comm    | 1.9315     | 1.9667     | 1.995      |   1.3 |  1.94
Output  | 0.00063403 | 0.00078274 | 0.0022849  |   0.0 |  0.00
Modify  | 13.764     | 15.551     | 16.968     |  34.1 | 15.31
Other   |            | 1.714      |            |       |  1.69

Nlocal:          263.5 ave         273 max         251 min
Histogram: 1 0 1 0 2 4 1 0 0 3
Nghost:        5575.83 ave        5610 max        5540 min
Histogram: 1 1 1 1 0 2 4 1 0 1
Neighs:         105385 ave      112775 max      100175 min
Histogram: 3 1 0 1 3 1 1 1 0 1

Total # of neighbors = 1264620
Ave neighs/atom = 399.94307
Ave special neighs/atom = 2.0341556
Neighbor list builds = 553
Dangerous builds = 0
reset_timestep 0

# continuing the initialization with the final value of timestep
unfix integrate
fix integrate all rigid/npt/small molecule temp ${Temp} ${Temp} 100.0 iso ${Pres} ${Pres} 1000.0
fix integrate all rigid/npt/small molecule temp 298.15 ${Temp} 100.0 iso ${Pres} ${Pres} 1000.0
fix integrate all rigid/npt/small molecule temp 298.15 298.15 100.0 iso ${Pres} ${Pres} 1000.0
fix integrate all rigid/npt/small molecule temp 298.15 298.15 100.0 iso 1 ${Pres} 1000.0
fix integrate all rigid/npt/small molecule temp 298.15 298.15 100.0 iso 1 1 1000.0
  create bodies CPU = 0.000 seconds
  1054 rigid bodies with 3162 atoms
  1.4900709 = max distance from body owner to body atom

timestep ${tstep}
timestep 2
run ${Ninpt}
run 10000000
PPPM initialization ...
  extracting TIP4P info from pair style
  using 12-bit tables for long-range coulomb (../kspace.cpp:342)
  G vector (1/distance) = 0.31193335
  grid = 30 30 30
  stencil order = 5
  estimated absolute RMS force accuracy = 0.0034473052
  estimated relative force accuracy = 1.0381457e-05
  using double precision KISS FFT
  3d grid and FFT values/proc = 8228 2700
Generated 0 of 15 mixed pair_coeff terms from arithmetic mixing rule
Per MPI rank memory allocation (min/avg/max) = 16.89 | 16.92 | 16.95 Mbytes
   Step        Density          Temp          Press          TotEng    
         0   1.0760184      286.74604     -69.895109     -16950.306    
      1000   1.0800216      296.47536      782.17848     -16788.039    
      2000   1.0842723      291.2562       437.06899     -16942.288    
      3000   1.0822638      296.98993     -388.74788     -16855.764    
      4000   1.0668916      299.01515     -190.19359     -16862.151    
      5000   1.0953296      295.86556      136.33437     -16857.301    
      6000   1.0907143      302.22031     -234.43471     -16782.646    
      7000   1.0884147      294.1683       274.86645     -16759.946    
      8000   1.0843876      289.89582     -835.40208     -16901.25     
      9000   1.0835735      294.35602      148.01305     -16910.258    
     10000   1.0999184      294.853        787.60654     -16886.501    
     11000   1.0960209      302.37528      497.26211     -16748.697    
     12000   1.088556       298.38082      35.05032      -16839.771    
     13000   1.0872277      288.25212      437.61547     -16972.462    
     14000   1.1037258      286.06449      1006.3094     -16934.854    
     15000   1.0785965      292.48979      273.76127     -16833.881    
     16000   1.0843899      291.55199     -100.78456     -16900.168    
     17000   1.0755271      296.00936     -359.35474     -16816.237    
     18000   1.0716262      306.12778     -397.57151     -16747.292    
     19000   1.0890869      302.25006      620.60688     -16736.644    
     20000   1.082612       296.71455      285.1783      -16781.462    
     21000   1.0914766      300.32416      699.69516     -16789.108    
     22000   1.0867161      295.79104      130.65826     -16852.957    
     23000   1.0865066      303.48781     -455.31661     -16752.153    
     24000   1.0662788      306.39021     -354.09589     -16755.464    
     25000   1.0866964      286.44377      579.4302      -16894.54     
     26000   1.0820244      287.94761     -732.13834     -16948.398    
     27000   1.0712055      292.64363     -746.12749     -16832.464    
     28000   1.0779046      304.18123     -171.41362     -16759.519    
     29000   1.0813632      299.63447      798.05202     -16762.653    
     30000   1.0823961      285.14311     -76.9041       -16949.688    
     31000   1.0844146      294.28534      82.552041     -16846.518    
     32000   1.0835342      294.63043     -208.52429     -16871.991    
     33000   1.0879162      287.77085      325.94256     -16914.555    
     34000   1.0787531      294.41327     -692.07936     -16819.974    
     35000   1.0840832      297.8975       416.74996     -16836.219    
     36000   1.0946005      305.51705     -80.463722     -16720.948    
     37000   1.086908       293.33818     -255.60618     -16874.322    
     38000   1.095423       297.63667      38.774276     -16876.67     
     39000   1.0911222      300.28457      469.98499     -16925.968    
     40000   1.0774459      289.9071      -222.22978     -16869.798    
     41000   1.0773246      308.18011      54.53417      -16724.206    
     42000   1.0706825      293.39923     -483.44033     -16882.27     
     43000   1.0704966      299.70691      43.190108     -16755.476    
     44000   1.0797581      296.84065      1.2593625     -16799.082    
     45000   1.090631       297.55006     -441.79107     -16884.912    
     46000   1.0978981      300.63486      7.1347328     -16838.307    
     47000   1.0873052      305.31374      617.29916     -16835.799    
     48000   1.0922153      300.00775      524.3731      -16882.554    
     49000   1.0765797      291.99798     -364.62902     -16783.841    
     50000   1.0780196      294.89048      462.48107     -16838.634    
     51000   1.066065       288.66044     -824.94082     -16827.493    
     52000   1.0781437      296.41037      362.89033     -16935.995    
     53000   1.0797044      287.79857     -518.83133     -16846.691    
     54000   1.085768       297.81287      432.1984      -16825.943    
     55000   1.0773114      295.26111     -82.201286     -16891.568    
     56000   1.0926354      288.07509     -125.82789     -16916.463    
     57000   1.0928926      287.97399      44.008847     -16913.63     
     58000   1.0697805      291.15742     -637.7318      -16813.61     
     59000   1.0842981      295.68282     -504.58398     -16849.792    
     60000   1.0820318      299.53072     -607.85991     -16745.891    
     61000   1.0880584      299.32759     -561.12825     -16864.583    
     62000   1.085606       294.03677      473.02579     -16827.381    
     63000   1.0740061      294.11101     -79.945774     -16875.901    
     64000   1.0951143      301.41795      624.35433     -16779.969    
     65000   1.0728219      294.37792     -478.92664     -16742.529    
     66000   1.0824113      297.38631      607.73493     -16835.516    
     67000   1.0819065      299.11729      39.844274     -16850.568    
     68000   1.0815417      291.68499     -69.706653     -16866.019    
     69000   1.0787655      296.66736     -48.383475     -16906.254    
     70000   1.0801386      290.65408      105.90252     -16804.413    
     71000   1.0844899      303.4407       560.58921     -16740.888    
     72000   1.0816408      291.19022      434.39175     -16856.76     
     73000   1.073361       291.49609     -15.065045     -16859.735    
     74000   1.0925485      303.51434      257.73744     -16778.826    
     75000   1.0911517      289.1883       563.99172     -16919.97     
     76000   1.0992905      302.37531      410.83705     -16880.683    
     77000   1.0741971      301.35915     -170.69284     -16734.763    
     78000   1.0663215      287.69693     -388.44465     -16875.453    
     79000   1.083889       290.49995      311.96385     -16909.214    
     80000   1.0823112      297.12178      353.50353     -16816.173    
     81000   1.0782436      296.50383     -465.4972      -16763.881    
     82000   1.0795315      305.20585      652.53465     -16717.47     
     83000   1.0854147      301.21965     -676.54649     -16671.644    
     84000   1.0953622      301.32494      491.11684     -16865.301    
     85000   1.0855153      294.11044     -284.57303     -16887.559    
     86000   1.089734       296.7481       433.02236     -16795.839    
     87000   1.0694882      296.0848       25.650085     -16840.135    
     88000   1.0977397      298.46822      838.57938     -16822.005    
     89000   1.0925175      300.43498      174.03725     -16832.551    
     90000   1.0909204      297.45986      417.49504     -16813.115    
     91000   1.0880045      289.01801      416.18868     -16846.249    
     92000   1.0824323      296.2346       452.05448     -16840.533    
     93000   1.0845418      301.33655      137.17866     -16797.487    
     94000   1.0823448      297.84973     -117.08147     -16879.627    
     95000   1.0777232      297.99667     -349.5973      -16823.517    
     96000   1.0820372      302.20017     -122.89424     -16817.874    
     97000   1.0822474      294.88754      794.44453     -16734.21     
     98000   1.0839433      311.69473      405.86658     -16767.96     
     99000   1.0712951      290.83447     -469.51716     -16786.669    
    100000   1.0852373      296.13458     -90.024248     -16883.207    
    101000   1.088825       292.09648     -496.61471     -17000.701    
    102000   1.0672569      294.50866     -729.64523     -16751.962    
    103000   1.0865969      296.76391      285.91545     -16810.562    
    104000   1.083268       293.94837      773.30664     -16712.149    
    105000   1.0775365      292.06161     -503.30652     -16805.799    
    106000   1.0878624      295.77992     -239.87179     -16752.083    
    107000   1.0619319      296.91873     -974.32734     -16767.481    
    108000   1.0716012      292.0437      -295.79608     -16857.282    
    109000   1.0775318      307.47194     -162.05015     -16783.671    
    110000   1.0815489      299.75121     -400.89987     -16801.841    
    111000   1.0781998      298.63439     -758.10054     -16791.389    
    112000   1.0736296      288.8064      -223.48498     -16861.378    
    113000   1.0666474      300.0986       30.708277     -16805.707    
    114000   1.0734189      299.00828      62.543511     -16844.304    
    115000   1.0761317      300.75639     -797.05641     -16816.072    
    116000   1.0864236      296.82979     -442.11029     -16785.791    
    117000   1.0691855      293.17681     -859.99238     -16803.607    
    118000   1.0756675      292.92984      202.76043     -16783.833    
    119000   1.0837984      296.05392     -53.255681     -16835.775    
    120000   1.0908535      300.53336      251.99976     -16757.863    
    121000   1.0833591      299.22542     -412.73126     -16852.813    
    122000   1.0909101      305.21056      193.54686     -16799.322    
    123000   1.0848241      298.66287     -292.71568     -16726.38     
    124000   1.099034       296.85295      834.17462     -16817.918    
    125000   1.1045306      294.10166      758.08317     -16782.428    
    126000   1.0990796      299.78185      668.2488      -16816.271    
    127000   1.0912937      302.44206     -887.7767      -16714.608    
    128000   1.0996923      292.68804      272.17904     -16841.14     
    129000   1.0954711      296.3138      -270.82949     -16860.963    
    130000   1.0747117      292.24515     -245.41581     -16807.875    
    131000   1.0950823      299.91723      537.76721     -16865.987    
    132000   1.0886625      286.37026     -193.7258      -16948.135    
    133000   1.0906434      298.67647     -113.66468     -16803.765    
    134000   1.0805593      292.87888      99.202882     -16930.759    
    135000   1.0745959      294.49035     -568.14141     -16781.738    
    136000   1.0872999      289.68184      838.71378     -16851.194    
    137000   1.0695761      307.4263       406.65081     -16845.584    
    138000   1.0872739      295.98275      271.17593     -16935.487    
    139000   1.072293       289.45837      16.545589     -16765.714    
    140000   1.0847051      310.38442      111.9708      -16742.451    
    141000   1.0843201      291.30113      451.81524     -16748.631    
    142000   1.0969718      295.21119      57.738155     -16765.046    
    143000   1.098451       306.66766      1113.1483     -16741.416    
    144000   1.0889665      299.19245      120.60756     -16891.227    
    145000   1.0775662      291.58854     -766.70821     -16787.86     
    146000   1.0863849      294.3588       999.38291     -16832.271    
    147000   1.0957365      301.6914       881.95272     -16758.11     
    148000   1.071854       299.508       -622.22184     -16784.276    
    149000   1.0789117      293.35256      691.08089     -16801.522    
    150000   1.0804683      301.65621     -8.7470561     -16818.315    
    151000   1.0941538      296.92614      656.63884     -16898.258    
    152000   1.0814225      309.2783      -40.185285     -16751.498    
    153000   1.0808701      299.62623      505.0236      -16851.147    
    154000   1.08751        297.8175       1362.1422     -16834.803    
    155000   1.0870557      297.6449       329.77181     -16751.286    
    156000   1.0893117      299.95598      275.44676     -16797.054    
    157000   1.0866968      293.32068      133.82462     -16931.488    
    158000   1.0894374      295.15821      924.10129     -16774.262    
    159000   1.0811288      285.94979     -203.80407     -16933.15     
    160000   1.0883681      294.14321      482.91985     -16747.072    
    161000   1.0753895      287.23272     -155.06777     -16848.155    
    162000   1.0835302      293.09564      89.162272     -16895.481    
    163000   1.079929       300.90881     -483.83494     -16780.417    
    164000   1.0965182      301.07833      633.32787     -16821.294    
    165000   1.0794315      298.80883      101.37796     -16862.802    
    166000   1.0877272      300.4243       286.66954     -16856.423    
    167000   1.0797733      298.45351      618.79369     -16854.497    
    168000   1.0825012      302.59805     -549.88323     -16754.56     
    169000   1.0951954      299.19724      320.06072     -16832.14     
    170000   1.085835       294.12995      968.18535     -16819.74     
    171000   1.0873356      298.0545       311.1898      -16802.811    
    172000   1.0780286      292.94614     -384.99898     -16874.441    
    173000   1.0821605      288.87193     -437.39622     -17002.287    
    174000   1.092109       298.64777     -497.88644     -16887.208    
    175000   1.0795911      302.1347      -508.90214     -16772.516    
    176000   1.1072692      296.59857      287.32689     -16903.486    
    177000   1.0827531      299.1291       813.14159     -16865.959    
    178000   1.0750062      299.61929      371.53398     -16834.452    
    179000   1.0816556      304.2833       671.97251     -16767.535    
    180000   1.0771562      296.07941     -657.62251     -16844.673    
    181000   1.0871163      300.70307     -385.92353     -16826.942    
    182000   1.0891535      300.32317      226.3964      -16821.933    
    183000   1.0792425      295.42318     -38.084405     -16824.278    
    184000   1.0862893      307.85242     -685.42889     -16678.049    
    185000   1.0817895      298.47544      187.00501     -16823.238    
    186000   1.0867068      303.08083      324.80396     -16731.24     
    187000   1.0873296      294.93905      823.80484     -16863.711    
    188000   1.0972478      295.80632      99.344032     -16805.353    
    189000   1.0921926      292.97672      266.57267     -16797.041    
    190000   1.075923       296.58746      52.741159     -16848.04     
    191000   1.0795194      306.33326     -484.84363     -16782.115    
    192000   1.0813333      301.13118      137.97602     -16802.814    
    193000   1.0811196      295.0056       191.96945     -16780.185    
    194000   1.0839172      295.63467     -9.0367606     -16835.14     
    195000   1.0812482      291.91793      417.59344     -16896.248    
    196000   1.0806737      298.77595      483.09537     -16786.062    
    197000   1.0926422      299.63429      444.94096     -16827.951    
    198000   1.094727       288.60123      229.38411     -16933.02     
    199000   1.0977302      291.69961      253.7146      -16881.754    
    200000   1.0986261      295.98231     -412.17571     -16816.264    
    201000   1.0776729      315.29649     -674.01383     -16754.268    
    202000   1.0804998      293.29428     -1085.1599     -16828.842    
    203000   1.0756201      297.83463      278.53926     -16785.583    
    204000   1.0891263      291.72445      344.71968     -16853.677    
    205000   1.0757351      296.4273       180.51993     -16779.813    
    206000   1.0747376      290.03797      234.30047     -16844.6      
    207000   1.0871848      295.18591      403.6558      -16766.363    
    208000   1.0841048      290.11392      308.18564     -16834.192    
    209000   1.0795465      295.01939     -29.351311     -16771.306    
    210000   1.0700749      302.14584     -331.33105     -16743.911    
    211000   1.0709087      296.92606     -380.0263      -16856.274    
    212000   1.0610029      305.92876      42.880806     -16634.352    
    213000   1.0710184      300.47386      23.691351     -16746.555    
    214000   1.0750516      294.59609     -236.59923     -16806.101    
    215000   1.0757715      291.06031     -775.58212     -16760.696    
    216000   1.0824514      294.65099     -412.95615     -16859.784    
    217000   1.096621       290.08085      418.95331     -16829.841    
    218000   1.0899635      300.56669     -25.21583      -16776.333    
    219000   1.0733462      305.30643      315.98878     -16749.371    
    220000   1.0857207      291.74555      507.96156     -16881.146    
    221000   1.0816063      310.10005     -91.685598     -16795.457    
    222000   1.0737017      293.40558     -189.11647     -16917.725    
    223000   1.0709071      298.31896      94.863187     -16840.3      
    224000   1.0693615      296.08902      114.82107     -16852.49     
    225000   1.0952432      294.41384      297.00335     -16892.454    
    226000   1.0859343      293.91283     -300.06315     -16899.287    
    227000   1.078753       298.67842     -425.52523     -16787.122    
    228000   1.0781405      295.53603     -342.02816     -16787.504    
    229000   1.0874609      298.00903      249.84985     -16809.99     
    230000   1.0822585      297.39639      522.81537     -16780.668    
    231000   1.0698756      289.01267     -523.99215     -16870.127    
    232000   1.0769472      291.97252      16.922567     -16797.937    
    233000   1.0772046      301.27777     -655.6762      -16843.91     
    234000   1.0865228      299.40807     -602.60438     -16750.97     
    235000   1.0899187      296.8911       567.28566     -16825.273    
    236000   1.0893105      287.96816      250.20254     -16792.973    
    237000   1.093676       301.68567      1195.5243     -16888.816    
    238000   1.0640437      304.02667     -691.43826     -16816.306    
    239000   1.0673032      297.65077     -384.92379     -16794.706    
    240000   1.0763873      295.63498      311.32252     -16849.041    
    241000   1.085226       301.17703     -169.80748     -16875.265    
    242000   1.0674944      293.71716      427.66575     -16790.694    
    243000   1.064144       287.8838      -363.20352     -16796.587    
    244000   1.0712621      299.89966     -258.31007     -16826.25     
    245000   1.0794621      298.57177      322.6148      -16732.222    
    246000   1.0817466      300.28971      185.30419     -16768.2      
    247000   1.0879699      291.72123      1179.6233     -16857.781    
    248000   1.0862357      294.23699      531.88279     -16917.588    
    249000   1.0727403      297.36954     -254.2207      -16780.297    
    250000   1.0742517      296.17406     -182.44347     -16789.398    
    251000   1.0803109      299.61029     -70.128641     -16923.779    
    252000   1.0912351      304.48408      895.72961     -16750.095    
    253000   1.0839802      291.70405      637.30261     -16934.641    
    254000   1.085409       296.70729      141.10027     -16766.742    
    255000   1.0788084      287.24553     -163.89577     -16942.295    
    256000   1.0757503      295.81563      33.223513     -16863.683    
    257000   1.0853495      290.93281      424.05881     -16828.434    
    258000   1.099949       284.89828      228.8783      -16967.844    
    259000   1.0770866      297.93397      80.101788     -16710.467    
    260000   1.0719921      303.03341      627.44825     -16706.135    
    261000   1.0723955      299.54641     -695.38647     -16696.949    
    262000   1.0795211      296.73078      215.40485     -16770.047    
    263000   1.0789386      291.58876     -397.1581      -16850.5      
    264000   1.0688005      306.41226     -724.96083     -16724.538    
    265000   1.0929875      296.90597      689.72886     -16809.937    
    266000   1.083562       289.11554      265.66279     -16820.453    
    267000   1.0945758      295.62488      268.05865     -16811.236    
    268000   1.080667       294.03592     -606.43334     -16719.075    
    269000   1.0836828      295.17324      306.92432     -16804.851    
    270000   1.0800014      293.82319     -171.22123     -16786.954    
    271000   1.0866429      301.68529      472.82047     -16835.779    
    272000   1.0777899      302.84454     -982.418       -16899.206    
    273000   1.0813636      295.57486      627.91299     -16775.494    
    274000   1.0990248      308.44117      749.61716     -16733.609    
    275000   1.0896358      305.03202     -145.34564     -16781.738    
    276000   1.0890298      293.68164     -28.958271     -16790.483    
    277000   1.084847       286.9566      -159.75093     -16858.759    
    278000   1.0729023      296.88075     -114.91494     -16921.123    
    279000   1.082954       283.73617      346.92475     -16924.314    
    280000   1.0842425      298.69997      104.50051     -16773.812    
    281000   1.0847552      295.89226      488.72133     -16866.204    
    282000   1.0732348      295.21632     -592.20987     -16862.313    
    283000   1.0849932      295.10357      620.9916      -16923.412    
    284000   1.0726568      286.86248      757.58504     -16911.82     
    285000   1.0784153      292.2868      -521.07939     -16837.227    
    286000   1.069628       293.86991      139.01888     -16754.238    
    287000   1.072635       294.32827     -470.6641      -16816.75     
    288000   1.0743859      298.35817     -770.48813     -16822.551    
    289000   1.0814061      298.19673     -357.19491     -16814.424    
    290000   1.0755925      295.80547      695.25507     -16675.066    
    291000   1.0889074      300.42117      228.3895      -16866.68     
    292000   1.0935384      296.11984      529.33665     -16954.965    
    293000   1.081497       289.61403     -736.95574     -16806.985    
    294000   1.0736491      300.11637     -236.87698     -16805.924    
    295000   1.0840178      304.18149      575.1469      -16826.705    
    296000   1.0894562      299.55084      676.45904     -16898.062    
    297000   1.1054961      300.14035      715.1302      -16869.242    
    298000   1.0901743      302.93634      165.01689     -16811.816    
    299000   1.0849217      290.77672     -690.5829      -16875.997    
    300000   1.0924781      291.05958      566.73794     -16831.137    
    301000   1.0884474      296.24649      67.940399     -16867.795    
    302000   1.0907288      299.66783      411.16041     -16796.587    
    303000   1.0844048      296.45971     -331.61929     -16908.093    
    304000   1.0781373      291.14539     -313.20387     -16954.188    
    305000   1.0753559      301.97141      148.22202     -16803.926    
    306000   1.0779704      296.83829      281.48087     -16796.419    
    307000   1.0837227      302.81642      378.8753      -16753.99     
    308000   1.0828855      298.8768      -142.57469     -16782.627    
    309000   1.0776769      294.28834     -610.18323     -16877.396    
    310000   1.0780513      297.84221     -129.91612     -16826.149    
    311000   1.0762424      293.74101     -118.6529      -16838.866    
    312000   1.0790909      295.12546      284.0528      -16791.171    
    313000   1.0798831      297.16419     -28.688878     -16838.203    
    314000   1.0757439      302.36089      11.933047     -16743.772    
    315000   1.0690012      290.7622       203.78903     -16881.384    
    316000   1.0693461      289.14306     -693.50992     -16844.805    
    317000   1.0830466      293.25535     -446.8928      -16863.307    
    318000   1.0881194      312.00948      277.74577     -16680.602    
    319000   1.0713639      299.94862     -278.38346     -16801.229    
    320000   1.0755564      291.98803     -680.45009     -16824.37     
    321000   1.0689561      293.97252     -526.23477     -16761.871    
    322000   1.0729239      300.67982     -1286.1493     -16881.724    
    323000   1.0842204      300.35949     -213.31608     -16904.435    
    324000   1.0777386      293.75925     -420.87694     -16847.414    
    325000   1.0771724      305.00294      67.827764     -16764.362    
    326000   1.0791766      298.43801      359.63011     -16793.796    
    327000   1.0775177      280.6637      -511.95776     -17023.552    
    328000   1.0728544      295.46456     -338.63186     -16874.444    
    329000   1.0639703      295.50907     -187.49632     -16800.183    
    330000   1.0722964      294.36317      388.17332     -16744.868    
    331000   1.093578       294.05797      52.210211     -16900.344    
    332000   1.085449       294.19499     -95.246832     -16819.428    
    333000   1.0927861      293.32527      227.4851      -16827.918    
    334000   1.084558       302.33908     -201.45255     -16592.545    
    335000   1.0799351      290.3236       360.36845     -16933.067    
    336000   1.0745002      300.03622     -400.16968     -16798.26     
    337000   1.0708589      297.80263     -691.59355     -16861.116    
    338000   1.0608718      295.28876     -1063.9349     -16803.635    
    339000   1.0672062      286.70219      423.26046     -16852.192    
    340000   1.073182       293.63013     -86.086012     -16861.309    
    341000   1.0899034      297.75841      18.12937      -16828.674    
    342000   1.0845469      296.71044     -609.90837     -16907.788    
    343000   1.0591381      295.00413     -924.75639     -16860.458    
    344000   1.0801281      298.93532     -140.59283     -16807.265    
    345000   1.0877546      299.63197      86.969395     -16860.765    
    346000   1.0816299      296.77725      149.26621     -16843.624    
    347000   1.0964049      295.29428      1003.668      -16810.311    
    348000   1.0735927      299.6202      -347.86856     -16759.797    
    349000   1.0914203      292.3904      -488.83376     -16909.924    
    350000   1.081456       291.31063     -218.92041     -16885.439    
    351000   1.0795945      293.02711      268.39519     -16809.446    
    352000   1.07922        292.93873     -175.60307     -16864.247    
    353000   1.0760085      295.39937     -961.3784      -16921.389    
    354000   1.0856902      297.77962      471.50145     -16854.624    
    355000   1.0911063      297.70933      600.68106     -16770.614    
    356000   1.0959595      292.788        7.6373028     -16864.126    
    357000   1.097993       287.42589      611.59821     -16887.842    
    358000   1.0770996      296.21814      96.606969     -16808.422    
    359000   1.0741041      292.38737      311.67814     -16851.005    
    360000   1.0829608      306.46094      294.42139     -16715.493    
    361000   1.0891289      287.72205     -174.25734     -16874.116    
    362000   1.0788431      292.54972      66.9835       -16784.556    
    363000   1.0759015      286.03501      452.17516     -16838.505    
    364000   1.0906529      298.0537       525.45725     -16820.321    
    365000   1.0787402      290.87147      354.77331     -16842.065    
    366000   1.0820301      299.04314      1099.8522     -16862.617    
    367000   1.0961836      295.71156      249.3206      -16829.739    
    368000   1.0731002      291.83383      92.151401     -16788.81     
    369000   1.0974849      294.55104      82.472628     -16758.592    
    370000   1.0928505      294.4727       1015.0664     -16808.824    
    371000   1.0835633      290.86736      70.808487     -16830.12     
    372000   1.08295        294.79139      1089.7293     -16825.903    
    373000   1.0915887      299.81291     -322.76661     -16784.145    
    374000   1.0834419      302.07294      391.71276     -16788.652    
    375000   1.0906314      297.40995      353.36818     -16834.808    
    376000   1.0966109      299.92697      620.29995     -16780.488    
    377000   1.0772817      305.39845     -660.3204      -16756.476    
    378000   1.0829278      303.25236     -351.72819     -16707.092    
    379000   1.0648619      293.91898     -651.90579     -16818.304    
    380000   1.0739588      300.16529     -876.1124      -16796.53     
    381000   1.075695       297.15383      425.02827     -16805.826    
    382000   1.0802516      295.04934     -162.95937     -16819.175    
    383000   1.0870952      306.99924     -107.9037      -16724.384    
    384000   1.0896374      295.90528     -631.93178     -16865.145    
    385000   1.0840002      292.67672      706.34309     -16880.859    
    386000   1.0792267      296.1404       142.29807     -16859.348    
    387000   1.0690479      296.916       -142.38902     -16820.073    
    388000   1.0953127      298.45931     -37.608849     -16877.035    
    389000   1.0743334      293.9306       274.35178     -16722.827    
    390000   1.0760037      292.31794      515.78606     -16858.226    
    391000   1.0821071      300.05858     -325.57636     -16735.911    
    392000   1.0803176      295.21381      636.3237      -16824.778    
    393000   1.0876031      305.13957     -112.41757     -16815.316    
    394000   1.0829702      291.07887      678.94163     -16904.202    
    395000   1.081729       295.00491      607.12706     -16823.12     
    396000   1.0792047      295.24432     -154.48101     -16818.31     
    397000   1.0631742      292.21353     -627.68165     -16814.583    
    398000   1.0665862      295.4065      -750.29673     -16834.437    
    399000   1.0681699      298.51581      449.10135     -16851.324    
    400000   1.0755141      293.17239     -145.2447      -16797.293    
    401000   1.0860733      293.5303       112.56717     -16921.709    
    402000   1.080541       291.5772       155.02966     -16865.816    
    403000   1.0807218      295.65158     -223.11889     -16805.196    
    404000   1.0991291      294.63588      321.38511     -16809.867    
    405000   1.0928211      290.00573     -515.96156     -16847.612    
    406000   1.0911544      295.87613     -191.86463     -16777.844    
    407000   1.0953131      278.73609      587.81523     -16889.46     
    408000   1.0752095      285.75989      25.874727     -16880.596    
    409000   1.0787205      297.22273      79.158848     -16903.805    
    410000   1.0978329      291.25007     -181.56915     -16865.914    
    411000   1.0872443      297.89233      2.8937012     -16947.462    
    412000   1.0712206      299.69251     -318.08703     -16796.303    
    413000   1.0671716      296.26784     -253.88791     -16777.707    
    414000   1.0814898      295.79874      331.90404     -16829.677    
    415000   1.0775877      289.21475      187.37345     -16868.192    
    416000   1.0885338      303.60548      697.13905     -16816.083    
    417000   1.0708687      293.31195      295.1599      -16920.021    
    418000   1.0677829      285.57888     -293.76361     -16877.703    
    419000   1.0803982      299.68658     -113.03061     -16823.252    
    420000   1.0855047      289.26996      100.52179     -16920.268    
    421000   1.0954411      291.95473      149.34042     -16774.136    
    422000   1.0837488      295.00096      510.68679     -16842.379    
    423000   1.0945154      296.18326      863.05717     -16845.068    
    424000   1.0840265      295.71941      295.36535     -16833.358    
    425000   1.0851838      298.37251     -492.78573     -16736.682    
    426000   1.0777448      286.5141       290.44381     -16832.983    
    427000   1.074096       296.57193      799.30026     -16848.779    
    428000   1.0779722      302.9567       299.60759     -16726.293    
    429000   1.0938436      293.0117       861.22867     -16817.072    
    430000   1.0873146      305.73491      43.311353     -16835.049    
    431000   1.0824128      293.67351      1410.6364     -16814.975    
    432000   1.0806324      295.2631      -88.078427     -16785.828    
    433000   1.0723017      303.89996      141.86393     -16760.053    
    434000   1.0882425      298.70467     -180.36544     -16815.522    
    435000   1.086036       286.65185      61.634416     -16928.146    
    436000   1.0898827      297.1697      -38.777917     -16883.697    
    437000   1.0870358      305.14003      448.53647     -16806.732    
    438000   1.0731471      304.74134      43.63678      -16732.92     
    439000   1.0850247      288.21527     -21.626521     -16875.02     
    440000   1.0754058      297.05602     -94.163049     -16781.414    
    441000   1.0838541      297.22386      262.9019      -16841.962    
    442000   1.0792028      300.81121     -61.045899     -16815.426    
    443000   1.0863559      294.37112     -863.49391     -16866.113    
    444000   1.0820788      300.08504      412.20748     -16783.63     
    445000   1.0881836      298.75871      1248.7815     -16786.022    
    446000   1.0787007      303.23176     -348.32553     -16775.91     
    447000   1.0815207      289.97467     -284.71314     -16966.96     
    448000   1.0818712      301.30512      534.96717     -16757.554    
    449000   1.0913763      297.74976      807.70284     -16793.465    
    450000   1.0866919      284.3214       314.15633     -16848.155    
    451000   1.0874007      293.92156      180.78816     -16859.094    
    452000   1.089435       291.68762     -131.71611     -16865.388    
    453000   1.0911083      292.87344     -406.53769     -16915.573    
    454000   1.0806899      288.96904     -782.12386     -16908.021    
    455000   1.0747987      298.11855     -385.96382     -16738.287    
    456000   1.0723146      288.55427     -631.11771     -16860.098    
    457000   1.0891839      294.27381      928.39913     -16871.915    
    458000   1.0826721      301.50683      234.31691     -16773.428    
    459000   1.0880196      297.09586     -271.92044     -16757.946    
    460000   1.0942476      294.06442      15.181116     -16793.421    
    461000   1.0764389      291.98774     -354.45035     -16822.942    
    462000   1.0828558      302.34732      872.49205     -16788.47     
    463000   1.0746061      306.71899     -1075.5494     -16688.364    
    464000   1.0698202      296.38726     -442.56063     -16824.409    
    465000   1.0778703      296.21335     -40.694086     -16744.406    
    466000   1.0789261      293.35015     -246.14224     -16890.489    
    467000   1.0829874      298.17425      250.36898     -16870.555    
    468000   1.0824253      294.6396      -200.39005     -16733.818    
    469000   1.0771095      293.4852      -412.76753     -16793.143    
    470000   1.0887799      294.35971     -428.03896     -16864.444    
    471000   1.082443       287.76662     -352.40914     -16826.918    
    472000   1.0859446      295.1756       146.92108     -16782.484    
    473000   1.0904853      283.51944     -8.2419014     -16979.471    
    474000   1.098614       300.14407      514.84251     -16855.51     
    475000   1.0952189      304.89563      851.18095     -16764.436    
    476000   1.0816974      289.1854       394.35863     -16920.605    
    477000   1.0897513      301.84284      366.58342     -16912.759    
    478000   1.0980133      300.85385      701.9211      -16826.963    
    479000   1.0799159      292.99016      367.12565     -16830.944    
    480000   1.091657       290.30249      547.07802     -16910.971    
    481000   1.0800982      291.09097      415.83166     -16837.929    
    482000   1.0793815      292.04329     -108.6005      -16889.527    
    483000   1.0799082      300.94973     -358.33907     -16802.529    
    484000   1.0810572      287.4028      -440.82856     -16840.446    
    485000   1.0754139      296.08265     -25.506933     -16861.871    
    486000   1.0896749      299.66458      937.56906     -16807.715    
    487000   1.0930578      286.17165      787.41786     -16944.019    
    488000   1.0741442      292.5908       193.51421     -16920.459    
    489000   1.0804416      290.57382     -301.02876     -16957.831    
    490000   1.0675422      298.50701     -103.21847     -16859.974    
    491000   1.0698016      301.73412     -197.02242     -16801.022    
    492000   1.0752899      286.87283     -118.11736     -16815.961    
    493000   1.0775388      314.20749      534.35522     -16829.986    
    494000   1.0771443      288.1577      -478.31642     -16863.828    
    495000   1.0800053      289.53735     -222.46913     -16826.204    
    496000   1.0903721      292.77585      571.62302     -16778.518    
    497000   1.0826786      302.09452      1615.8756     -16773.311    
    498000   1.0758342      292.10148     -190.19264     -16867.367    
    499000   1.0659591      299.44357     -7.1958798     -16852.543    
    500000   1.0798397      294.39844      97.98908      -16818.67     
    501000   1.078223       300.93023     -755.36359     -16861.335    
    502000   1.0791105      303.83091      198.8229      -16724.07     
    503000   1.0838871      294.25805      75.304163     -16714.035    
    504000   1.0854153      291.79472      859.75272     -16945.335    
    505000   1.0839094      301.78445      581.65577     -16811.808    
    506000   1.0900158      293.74202     -205.08105     -16839.83     
    507000   1.0815268      297.2268       518.52033     -16882.042    
    508000   1.0776448      299.98804      583.52383     -16768.07     
    509000   1.0763639      302.08643      85.733757     -16778.56     
    510000   1.0881745      298.64395      223.67864     -16829.192    
    511000   1.0859052      295.45245     -418.8018      -16928.098    
    512000   1.0952534      304.42206      507.81127     -16716.825    
    513000   1.0907766      299.54302      513.08505     -16836.125    
    514000   1.0681632      296.84151     -320.53993     -16843.253    
    515000   1.0780254      297.60826      204.83217     -16876.264    
    516000   1.0748693      306.94651     -637.44705     -16771.368    
    517000   1.0706745      293.64725      89.620097     -16875.107    
    518000   1.0561458      295.63654      351.09648     -16784.049    
    519000   1.086267       298.48768     -155.15333     -16835.728    
    520000   1.0725635      291.63351     -335.63846     -16835.729    
    521000   1.0782312      292.84841      380.1012      -16803.329    
    522000   1.0850282      302.19724     -388.78171     -16804.436    
    523000   1.0629969      303.72638     -949.25411     -16738.855    
    524000   1.0609843      296.32039     -1112.0702     -16804.353    
    525000   1.0822239      300.3828       712.55053     -16783.271    
    526000   1.0704785      306.5268      -1117.1681     -16654.542    
    527000   1.0837133      294.05046      694.91887     -16783.545    
    528000   1.0708683      291.94272     -153.99245     -16851.605    
    529000   1.0731714      290.15867     -484.72714     -16856.831    
    530000   1.0897054      295.28042     -36.616321     -16795.659    
    531000   1.0783462      293.77757     -401.65082     -16816.784    
    532000   1.0883549      296.41171     -129.38994     -16861.599    
    533000   1.0778191      298.46223      136.85398     -16792.121    
    534000   1.080456       302.2051      -808.22734     -16794.152    
    535000   1.0724753      292.6022      -967.71316     -16884.468    
    536000   1.080337       291.36746      661.82355     -16870.862    
    537000   1.07979        299.59655     -118.39405     -16780.381    
    538000   1.0678586      294.85294     -99.597252     -16735.028    
    539000   1.0741085      300.83121     -179.55053     -16691.761    
    540000   1.0868406      294.12544     -388.7625      -16796.713    
    541000   1.0891836      301.49916      559.34393     -16755.134    
    542000   1.0790894      289.00433      178.6711      -16857.278    
    543000   1.0892846      295.2591      -71.634328     -16879.247    
    544000   1.0819972      289.47268      478.05192     -16856.311    
    545000   1.0854582      298.1887       287.21664     -16828.003    
    546000   1.0842422      297.439        227.68708     -16845.984    
    547000   1.0866321      299.8746      -145.34751     -16859.362    
    548000   1.0809858      302.36457     -847.71002     -16858.843    
    549000   1.088501       294.78153      32.485074     -16800.526    
    550000   1.0732203      294.69642     -766.24774     -16837.618    
    551000   1.0766025      296.15346     -623.44622     -16854.352    
    552000   1.0750691      293.91936     -516.05508     -16832.038    
    553000   1.0820369      288.26448      226.56573     -16846.798    
    554000   1.0823115      297.96641      1612.1296     -16821.244    
    555000   1.0721986      302.13538      6.8382946     -16731.837    
    556000   1.0851671      301.56151      326.86402     -16755.228    
    557000   1.073266       292.92968      76.112494     -16927.016    
    558000   1.070777       298.61602     -697.92201     -16826.365    
    559000   1.0897666      295.0658       640.12931     -16854.272    
    560000   1.089331       284.46215     -157.57963     -16962.618    
    561000   1.0907087      289.90523      297.02694     -16868.463    
    562000   1.0831462      300.4893       109.64567     -16763.866    
    563000   1.0858058      295.42053     -171.8404      -16813.508    
    564000   1.0837895      292.6148      -62.18232      -16849.398    
    565000   1.0769746      284.95327     -251.12166     -16816.398    
    566000   1.0899084      296.1416       677.80447     -16844.199    
    567000   1.0917227      290.66346      890.03443     -16829.218    
    568000   1.0853803      292.58724     -71.522003     -16839.377    
    569000   1.0851345      302.52442      237.41976     -16779.49     
    570000   1.093112       298.87534     -92.65588      -16846.188    
    571000   1.0775295      298.74795      322.99084     -16739.791    
    572000   1.081491       301.58519      115.46767     -16709.023    
    573000   1.0805961      285.00343     -396.41596     -16866.454    
    574000   1.0796546      295.88565     -958.19726     -16762.531    
    575000   1.0782783      299.57063      259.6566      -16759.078    
    576000   1.0842695      288.69632      1036.5242     -16898.14     
    577000   1.0782215      299.83142     -571.20069     -16761.243    
    578000   1.0688154      291.42559      51.20017      -16801.31     
    579000   1.0710376      289.56723      367.5626      -16844.598    
    580000   1.0826207      290.05344      145.75925     -16852.741    
    581000   1.0766867      291.54057     -334.49618     -16849.546    
    582000   1.0732102      295.62144     -518.00908     -16798.517    
    583000   1.0812036      285.4968      -270.51617     -16944.953    
    584000   1.0929796      290.96031     -192.09805     -16897.117    
    585000   1.0870795      292.76317      22.592144     -16843.855    
    586000   1.083096       290.54938     -318.88175     -16880.793    
    587000   1.0691221      292.87227     -556.02095     -16834.826    
    588000   1.0953126      292.18877      404.33379     -16880.205    
    589000   1.0792174      301.51227     -283.64705     -16775.693    
    590000   1.0785766      300.42863     -74.976082     -16797.599    
    591000   1.0704745      296.74198     -163.73525     -16797.785    
    592000   1.0817192      308.93104      667.97506     -16724.284    
    593000   1.0882385      294.4169       335.24717     -16782.653    
    594000   1.0836406      297.53956     -242.08851     -16743.902    
    595000   1.0784793      292.60306      260.21902     -16935.611    
    596000   1.0788626      291.68434      38.717499     -16854.947    
    597000   1.0698533      295.45744     -13.61026      -16716.985    
    598000   1.0835736      288.94073     -469.38889     -16866.281    
    599000   1.0835996      298.17661      227.93579     -16863.344    
    600000   1.0892442      298.96622      908.96666     -16806.937    
    601000   1.0737153      298.4089      -216.54004     -16739.629    
    602000   1.0891773      292.36622      324.70258     -16818.974    
    603000   1.0825175      293.28685     -427.85963     -16849.7      
    604000   1.0831972      283.01286     -81.210993     -16958.483    
    605000   1.076452       287.1725       206.82582     -16821.591    
    606000   1.0756352      289.222       -336.50382     -16848.916    
    607000   1.0826657      295.56606      383.31952     -16808.494    
    608000   1.0854379      294.82997     -691.62055     -16821.419    
    609000   1.0806807      296.26232     -412.02525     -16791.133    
    610000   1.0748651      288.83175      90.89646      -16838.539    
    611000   1.065686       297.6805      -188.59457     -16824.771    
    612000   1.0648619      298.36132     -89.433971     -16874.587    
    613000   1.0778827      297.39126     -656.8074      -16865.348    
    614000   1.0808017      296.46633     -492.94896     -16804.548    
    615000   1.0749432      298.30705     -578.16832     -16798.093    
    616000   1.0815303      302.49793      242.91348     -16873.955    
    617000   1.0752233      296.69418      843.98614     -16789.852    
    618000   1.0853737      300.01284      179.66901     -16824.554    
    619000   1.0929371      304.54273      927.74103     -16852.045    
    620000   1.0829554      297.8501       239.7213      -16909.344    
    621000   1.0788648      296.88563     -322.79316     -16889.993    
    622000   1.0751559      285.4833      -204.95737     -16824.733    
    623000   1.0782039      298.55148      1003.4408     -16696.881    
    624000   1.0856618      295.09009     -413.01375     -16810.931    
    625000   1.0806947      294.05976     -188.60435     -16869.85     
    626000   1.082487       292.51722      33.527413     -16914.572    
    627000   1.0782844      305.40614     -189.52312     -16742.337    
    628000   1.0835292      302.0824       57.433272     -16865.787    
    629000   1.0774092      301.52547     -568.31866     -16783.295    
    630000   1.0777209      287.87028     -210.13553     -16866.388    
    631000   1.0818888      288.78243     -74.534777     -16881.479    
    632000   1.0906155      295.08489      833.3707      -16882.924    
    633000   1.0923107      297.5855       534.61987     -16900.076    
    634000   1.0842663      296.86114     -576.1975      -16923.427    
    635000   1.0798075      296.49402     -257.48564     -16919.72     
    636000   1.0676018      295.94233     -85.947269     -16791.815    
    637000   1.0693764      284.6436      -1364.7191     -16935.405    
    638000   1.0793663      306.11213     -27.33767      -16640.411    
    639000   1.0829203      299.97023      202.85674     -16775.045    
    640000   1.0782278      288.83067      899.06566     -16885.265    
    641000   1.0865369      291.82503      275.12771     -16941.709    
    642000   1.0839607      290.33527      344.9015      -16877.945    
    643000   1.0825222      293.49264     -720.12585     -16896.584    
    644000   1.0913178      297.31088     -22.70968      -16906.526    
    645000   1.0916808      298.81668     -268.83128     -16772.733    
    646000   1.0853801      298.53171      618.52021     -16868.759    
    647000   1.0787932      296.48526     -98.233389     -16718.527    
    648000   1.0896027      299.59461     -524.30338     -16779.803    
    649000   1.0978037      282.71345     -249.92465     -16850.288    
    650000   1.0771589      297.46236     -406.56286     -16842.977    
    651000   1.0876146      305.36045      732.65907     -16724.425    
    652000   1.0818534      303.93641      584.19188     -16801.535    
    653000   1.0764056      295.18448      446.19409     -16886.15     
    654000   1.0805141      289.00657     -683.82652     -16907.43     
    655000   1.085343       287.37391      122.90854     -16837.038    
    656000   1.0856278      298.78086      350.27395     -16817.887    
    657000   1.0790677      293.5172      -190.03425     -16856.969    
    658000   1.0896669      294.66232      827.76016     -16940.899    
    659000   1.0863873      299.60438      474.48563     -16801.168    
    660000   1.094236       293.68254      772.36096     -16835.522    
    661000   1.0903337      299.01237     -146.70371     -16775.119    
    662000   1.0915148      291.91094     -170.32878     -16849.99     
    663000   1.0717621      300.48227     -508.45159     -16785.781    
    664000   1.0714215      297.32415     -469.3578      -16798.644    
    665000   1.0741289      283.79993     -388.23208     -16875.522    
    666000   1.0805989      296.1795      -43.388438     -16838.751    
    667000   1.0874638      296.30937     -14.020345     -16853.122    
    668000   1.0898213      294.94963      468.3118      -16956.1      
    669000   1.0871111      289.82231      269.39412     -16862.685    
    670000   1.0845363      287.38366      510.60679     -16841.519    
    671000   1.0811963      295.02594      73.357502     -16864.837    
    672000   1.0919419      290.30773     -175.77361     -16972.317    
    673000   1.08727        290.80284      61.614059     -16871.69     
    674000   1.0743696      295.60651     -93.919038     -16788.549    
    675000   1.072873       289.95305     -554.45016     -16852.456    
    676000   1.0845475      299.30457      635.45185     -16841.775    
    677000   1.091482       294.39298      1234.8877     -16822.76     
    678000   1.0864354      298.11086      723.14815     -16751.254    
    679000   1.09601        302.16608      150.81915     -16748.504    
    680000   1.0871927      294.35599      307.9972      -16921.771    
    681000   1.0870924      284.82713      20.591243     -16978.729    
    682000   1.0784713      296.92655      105.05523     -16839.393    
    683000   1.0829637      301.75546      397.24455     -16824.706    
    684000   1.0826625      297.6896      -143.56384     -16924.48     
    685000   1.0889901      291.65132      379.4922      -16840.565    
    686000   1.0709417      295.3874       7.045243      -16805.483    
    687000   1.0734365      301.47393      366.67382     -16770.227    
    688000   1.0758762      291.48351     -93.273669     -16803.793    
    689000   1.0919183      300.04551      1054.0367     -16845.528    
    690000   1.0851765      300.53634     -112.24356     -16806.617    
    691000   1.076002       298.55855     -659.54746     -16824.141    
    692000   1.0738382      296.242        74.046335     -16838.013    
    693000   1.0736795      297.12585      433.49256     -16778.824    
    694000   1.0771506      292.67837      283.103       -16791.103    
    695000   1.0721952      288.20867     -249.6211      -16848.334    
    696000   1.0794597      291.55311     -159.86706     -16776.73     
    697000   1.0786242      297.67898      268.29001     -16770.49     
    698000   1.0827341      295.89089     -184.48302     -16798.03     
    699000   1.0825655      300.81994      180.56859     -16839.3      
    700000   1.087547       299.60677     -67.609205     -16741.7      
    701000   1.0924616      298.52359      756.01072     -16810.533    
    702000   1.0903915      287.42022     -205.45671     -16930.457    
    703000   1.0818863      295.76681     -596.58912     -16895.345    
    704000   1.067515       292.49111     -722.23467     -16815.85     
    705000   1.0810845      296.04754      182.29833     -16798.198    
    706000   1.0742038      304.51522     -379.94988     -16841.177    
    707000   1.0877666      293.36996     -19.582404     -16895.401    
    708000   1.0816849      292.42134      184.81024     -16903.539    
    709000   1.0894203      295.3546       249.35733     -16807.73     
    710000   1.0863026      288.42184      194.27831     -16963.481    
    711000   1.0853025      291.43412     -84.861895     -16814.526    
    712000   1.0883985      297.68181     -143.6343      -16815.068    
    713000   1.0917591      294.50808      84.587403     -16817.459    
    714000   1.0859469      286.13989     -788.04005     -16980.276    
    715000   1.0805496      297.43946     -124.16497     -16751.067    
    716000   1.0907796      289.12835     -132.91487     -16919.868    
    717000   1.0847495      289.15986     -681.58711     -16890.299    
    718000   1.0806053      303.47163      405.59102     -16738.072    
    719000   1.0764565      298.21947     -1011.0615     -16765.426    
    720000   1.0769511      297.868       -441.41272     -16772.268    
    721000   1.0812116      302.56843     -90.642959     -16768.303    
    722000   1.0815403      290.9502       856.91642     -16859.33     
    723000   1.0919473      295.80642      417.2482      -16881.845    
    724000   1.0671788      302.00373     -760.49992     -16813.821    
    725000   1.086269       298.00706      835.73196     -16723.533    
    726000   1.0867446      307.0135       617.52974     -16755.684    
    727000   1.0835277      302.3081       177.4462      -16866.892    
    728000   1.0826288      296.32949      174.04142     -16811.218    
    729000   1.0742757      299.39978     -562.84653     -16729.676    
    730000   1.092001       292.52164      859.02174     -16732.72     
    731000   1.0786541      298.27423      92.892559     -16801.555    
    732000   1.0838881      297.71081      441.34387     -16802.27     
    733000   1.0885751      295.64205      92.647115     -16825.8      
    734000   1.0685313      286.85248     -922.58534     -16855.363    
    735000   1.076314       294.18425      443.6745      -16818.249    
    736000   1.073088       292.35971     -138.27415     -16930.187    
    737000   1.0879576      300.60155     -834.02117     -16892.94     
    738000   1.0752816      288.74909     -686.09011     -16850.251    
    739000   1.0811921      289.00777      262.36285     -16816.657    
    740000   1.0649471      300.73987     -707.79925     -16703.149    
    741000   1.0667909      287.74492     -1620.8498     -16845.961    
    742000   1.0746403      295.69731     -225.66475     -16798.943    
    743000   1.073424       303.99726     -245.34256     -16812.884    
    744000   1.0787044      301.83011      365.39425     -16732.516    
    745000   1.0742911      288.96382     -526.48786     -16884.954    
    746000   1.0730686      294.50252      59.434898     -16864.451    
    747000   1.0679658      292.97555     -527.70714     -16810.5      
    748000   1.0650092      289.2057      -637.50522     -16822.48     
    749000   1.0844369      296.61014     -821.30771     -16777.683    
    750000   1.0872034      303.24197      349.35385     -16767.727    
    751000   1.0832555      305.24008      605.68267     -16787.076    
    752000   1.0713287      287.33578     -531.9714      -16816.146    
    753000   1.075466       295.65265     -61.933614     -16829.767    
    754000   1.085765       295.78666      78.911058     -16917.078    
    755000   1.0784885      287.57134     -932.87338     -16901.723    
    756000   1.0762685      303.63842     -156.09746     -16700.432    
    757000   1.0780456      303.62371     -358.38914     -16758.031    
    758000   1.068076       300.53039     -38.742887     -16712.016    
    759000   1.08344        305.41464      657.30514     -16736.004    
    760000   1.0803931      292.86477      102.74542     -16744.772    
    761000   1.0711282      294.05869     -505.10993     -16857.383    
    762000   1.0684716      300.60499     -551.21388     -16782.428    
    763000   1.0637563      303.23644     -643.55048     -16813.318    
    764000   1.0887014      293.96499      735.87861     -16803.555    
    765000   1.0785399      295.36367      102.45887     -16784.696    
    766000   1.08469        302.50955      256.80289     -16829.096    
    767000   1.090511       292.21988      197.0013      -16970.939    
    768000   1.0768775      292.56305     -422.86438     -16934.065    
    769000   1.0835337      296.45755      395.11508     -16897.634    
    770000   1.0849897      307.74521      411.89022     -16887.634    
    771000   1.0748529      293.68158      48.791564     -16859.219    
    772000   1.0882861      294.42363      903.59866     -16792.217    
    773000   1.0756207      300.98762     -126.95491     -16867.643    
    774000   1.0606937      292.40429      28.755301     -16758.708    
    775000   1.0654631      283.12202     -668.20843     -16863.383    
    776000   1.0678356      298.52915     -203.15025     -16703.142    
    777000   1.0897471      295.79253      326.13013     -16853.502    
    778000   1.0893328      295.69842      775.53247     -16805.932    
    779000   1.0774933      295.89615     -321.75308     -16878.589    
    780000   1.0838939      301.68974      364.30682     -16822.328    
    781000   1.082293       293.69848      349.84629     -16862.956    
    782000   1.0665184      293.8014      -567.27361     -16887.082    
    783000   1.0733524      297.45103      265.07182     -16842.999    
    784000   1.0851908      296.21443      419.95219     -16839.666    
    785000   1.0696462      298.39411     -686.15809     -16832.972    
    786000   1.0770735      297.72311     -344.42538     -16832.886    
    787000   1.0658624      295.92026     -47.650078     -16722.003    
    788000   1.075129       292.57967     -1208.7081     -16850.548    
    789000   1.0695736      291.32011     -1168.7001     -16792.447    
    790000   1.0842363      291.78539     -983.43325     -16766.116    
    791000   1.0798849      300.94619      101.87684     -16763.56     
    792000   1.0854935      294.00549      88.36479      -16858.557    
    793000   1.0923908      295.0649       95.445218     -16803.816    
    794000   1.0887873      304.00882      85.383178     -16836.344    
    795000   1.0826129      304.00987      368.98386     -16804.681    
    796000   1.0895467      299.31834      293.76267     -16868.268    
    797000   1.0888517      302.22396      255.07912     -16822.616    
    798000   1.0832834      299.07931      146.60263     -16795.205    
    799000   1.0804906      289.20278      285.51926     -16860.685    
    800000   1.0763788      299.09514      196.95418     -16806.975    
[...]
  10291000   1.0808441      303.69882     -294.94515     -13456.008    
  10292000   1.0808441      289.78462      264.90753     -13623.298    
  10293000   1.0808441      298.86164     -87.244438     -13572.227    
  10294000   1.0808441      285.4692      -339.14754     -13606.7      
  10295000   1.0808441      304.62815      638.90266     -13588.213    
  10296000   1.0808441      297.28955     -139.49318     -13496.264    
  10297000   1.0808441      289.66875     -575.94748     -13644.422    
  10298000   1.0808441      302.42108      480.93065     -13564.68     
  10299000   1.0808441      297.82021     -259.23302     -13566.818    
  10300000   1.0808441      298.05888      160.14137     -13550.612    
  10301000   1.0808441      297.67783     -334.79381     -13500.607    
  10302000   1.0808441      297.80085     -42.07076      -13590.987    
  10303000   1.0808441      296.73139      117.8821      -13597.766    
  10304000   1.0808441      300.04224     -303.51555     -13533.632    
  10305000   1.0808441      298.90034     -519.46329     -13575.586    
  10306000   1.0808441      294.70008      245.36387     -13531.128    
  10307000   1.0808441      296.56328     -1232.0789     -13486.735    
  10308000   1.0808441      294.65419      849.74387     -13565.472    
  10309000   1.0808441      293.11356      48.194793     -13595.895    
  10310000   1.0808441      286.94133     -548.39153     -13659.626    
  10311000   1.0808441      299.17934     -308.61027     -13529.737    
  10312000   1.0808441      292.2482      -631.49197     -13588.412    
  10313000   1.0808441      290.47739      483.77207     -13687.949    
  10314000   1.0808441      291.44767      85.911374     -13577.722    
  10315000   1.0808441      292.88866     -717.36483     -13610.923    
  10316000   1.0808441      295.34131      40.150381     -13623.03     
  10317000   1.0808441      298.07533     -593.57005     -13531.913    
  10318000   1.0808441      299.11868     -346.8597      -13585.267    
  10319000   1.0808441      291.96384     -155.40487     -13651.133    
  10320000   1.0808441      296.09138     -407.88078     -13644.867    
  10321000   1.0808441      295.14922     -301.78306     -13647.227    
  10322000   1.0808441      297.0642       93.816559     -13531.102    
  10323000   1.0808441      295.46111      688.81562     -13551.642    
  10324000   1.0808441      292.13614      27.112736     -13620.447    
  10325000   1.0808441      292.81316      443.92906     -13598.155    
  10326000   1.0808441      296.73563      422.82875     -13590.68     
  10327000   1.0808441      300.80651      258.48521     -13505.143    
  10328000   1.0808441      289.62231     -723.91352     -13560.36     
  10329000   1.0808441      303.46521     -14.966076     -13492.835    
  10330000   1.0808441      289.24711      16.636554     -13611.633    
  10331000   1.0808441      297.45786     -508.69134     -13549.588    
  10332000   1.0808441      298.20002      249.2488      -13543.609    
  10333000   1.0808441      304.96523      25.832296     -13582.743    
  10334000   1.0808441      292.48748     -800.49323     -13575.201    
  10335000   1.0808441      296.24122      375.10777     -13571.936    
  10336000   1.0808441      294.599       -96.389092     -13665.763    
  10337000   1.0808441      294.96237     -195.79311     -13669.158    
  10338000   1.0808441      301.00135      489.2368      -13652.221    
  10339000   1.0808441      296.30964     -39.267865     -13571.867    
  10340000   1.0808441      299.05464      487.14318     -13639.914    
  10341000   1.0808441      302.48394      838.7064      -13564.233    
  10342000   1.0808441      287.44161      470.55729     -13612.366    
  10343000   1.0808441      290.59981      605.06534     -13591.995    
  10344000   1.0808441      302.43689     -209.39285     -13585.577    
  10345000   1.0808441      292.03887     -466.13126     -13536.519    
  10346000   1.0808441      285.85116      14.278505     -13686.324    
  10347000   1.0808441      295.52374     -474.59251     -13573.989    
  10348000   1.0808441      289.69839      551.59181     -13642.693    
  10349000   1.0808441      293.38403      135.83732     -13536.381    
  10350000   1.0808441      288.76818      669.5279      -13629.452    
  10351000   1.0808441      285.46058      1562.714      -13672.558    
  10352000   1.0808441      295.71016     -429.76448     -13550.999    
  10353000   1.0808441      296.4758       88.058607     -13648.618    
  10354000   1.0808441      295.14678      304.30091     -13592.616    
  10355000   1.0808441      288.03974      282.38262     -13583.407    
  10356000   1.0808441      300.78577     -134.44797     -13576.175    
  10357000   1.0808441      307.88029      28.805419     -13404.248    
  10358000   1.0808441      299.19122      92.810126     -13588.302    
  10359000   1.0808441      290.65325     -282.61109     -13598.462    
  10360000   1.0808441      301.72619      237.88197     -13601.976    
  10361000   1.0808441      291.58743     -165.10579     -13637.695    
  10362000   1.0808441      299.27235      314.94996     -13529.642    
  10363000   1.0808441      299.91898     -291.08158     -13527.927    
  10364000   1.0808441      298.54755     -819.59953     -13557.204    
  10365000   1.0808441      295.48765     -338.89502     -13551.593    
  10366000   1.0808441      292.01464     -477.48922     -13621.953    
  10367000   1.0808441      284.31904     -312.6325      -13653.253    
  10368000   1.0808441      294.06247     -277.33858     -13527.696    
  10369000   1.0808441      295.95786     -1171.0433     -13518.439    
  10370000   1.0808441      293.23076     -1067.4196     -13607.753    
  10371000   1.0808441      300.87873     -1085.1474     -13512.064    
  10372000   1.0808441      300.41489     -1234.4438     -13510.248    
  10373000   1.0808441      287.75368     -1082.1847     -13660.788    
  10374000   1.0808441      299.10988      707.92126     -13489.992    
  10375000   1.0808441      303.31025      1156.7565     -13479.793    
  10376000   1.0808441      291.15982     -39.392044     -13630.523    
  10377000   1.0808441      294.51449      42.160366     -13605.428    
  10378000   1.0808441      295.37262     -558.15944     -13534.337    
  10379000   1.0808441      298.12177      11.259699     -13619.923    
  10380000   1.0808441      291.42018      414.79973     -13594.044    
  10381000   1.0808441      302.19269      119.65365     -13559.196    
  10382000   1.0808441      295.53498     -67.982271     -13595.811    
  10383000   1.0808441      295.62464     -384.14851     -13622.98     
  10384000   1.0808441      292.20986     -844.57598     -13675.778    
  10385000   1.0808441      298.08505     -45.898807     -13558.301    
  10386000   1.0808441      299.57337      275.70362     -13574.355    
  10387000   1.0808441      291.39744      576.04204     -13652.141    
  10388000   1.0808441      285.82201      8.3062998     -13630.624    
  10389000   1.0808441      295.14222     -531.84133     -13622.854    
  10390000   1.0808441      299.1946      -707.97105     -13555.078    
  10391000   1.0808441      296.13084     -444.32552     -13580.501    
  10392000   1.0808441      294.76601     -355.73293     -13587.936    
  10393000   1.0808441      294.55765      259.9484      -13573.617    
  10394000   1.0808441      294.4967      -324.99591     -13537.747    
  10395000   1.0808441      288.30909      451.21097     -13522.487    
  10396000   1.0808441      305.48294     -685.54397     -13508.483    
  10397000   1.0808441      300.03046     -735.21633     -13582.301    
  10398000   1.0808441      293.98253     -24.468542     -13614.232    
  10399000   1.0808441      300.84685     -499.69056     -13501.77     
  10400000   1.0808441      299.56335     -520.99007     -13579.971    
  10401000   1.0808441      299.03964      613.2831      -13612.031    
  10402000   1.0808441      298.16121      56.403765     -13600.114    
  10403000   1.0808441      296.76665      727.51892     -13525.024    
  10404000   1.0808441      292.57605     -618.70429     -13533.713    
  10405000   1.0808441      294.03267     -38.744386     -13648.989    
  10406000   1.0808441      301.20922     -279.00643     -13579.78     
  10407000   1.0808441      298.87834      239.42897     -13537.508    
  10408000   1.0808441      295.90015     -1245.4429     -13620.949    
  10409000   1.0808441      291.28335     -283.13532     -13663.831    
  10410000   1.0808441      291.90385      273.49454     -13641.558    
  10411000   1.0808441      290.18312     -618.50136     -13643.191    
  10412000   1.0808441      294.6464      -669.3641      -13574.223    
  10413000   1.0808441      298.70392     -159.70232     -13515.131    
  10414000   1.0808441      300.44885     -288.15594     -13551.852    
  10415000   1.0808441      290.21731     -473.02215     -13619.152    
  10416000   1.0808441      297.42179      825.06364     -13576.386    
  10417000   1.0808441      287.26411     -787.45803     -13660.34     
  10418000   1.0808441      289.10571      178.8208      -13569.128    
  10419000   1.0808441      298.90174     -293.52397     -13505.627    
  10420000   1.0808441      292.53568      30.881566     -13580.16     
  10421000   1.0808441      290.52552      433.85566     -13458.255    
  10422000   1.0808441      285.56028     -38.996168     -13647.768    
  10423000   1.0808441      299.8389       799.98197     -13439.652    
  10424000   1.0808441      296.8107       255.79451     -13533.396    
  10425000   1.0808441      294.0957       93.586287     -13499.811    
  10426000   1.0808441      298.75408     -814.10573     -13560.254    
  10427000   1.0808441      297.7864       429.35481     -13508.584    
  10428000   1.0808441      294.06745     -1006.5002     -13482.251    
  10429000   1.0808441      290.51104     -953.31592     -13717.804    
  10430000   1.0808441      291.35183     -244.94382     -13720.378    
  10431000   1.0808441      289.15402     -718.92373     -13596.861    
  10432000   1.0808441      298.81146      217.6291      -13583.796    
  10433000   1.0808441      300.87808     -148.79154     -13503.61     
  10434000   1.0808441      294.88923     -30.970871     -13583.318    
  10435000   1.0808441      300.38793      537.91378     -13599.795    
  10436000   1.0808441      303.46865     -162.2519      -13511.147    
  10437000   1.0808441      290.5688      -276.91359     -13696.381    
  10438000   1.0808441      292.23455     -236.47099     -13694.267    
  10439000   1.0808441      304.08802     -182.17478     -13453.16     
  10440000   1.0808441      299.63164     -104.69981     -13575.54     
  10441000   1.0808441      290.80667     -480.4506      -13586.605    
  10442000   1.0808441      308.21124     -93.230323     -13499.796    
  10443000   1.0808441      302.62926     -604.12644     -13518.747    
  10444000   1.0808441      297.47282     -681.98932     -13583.998    
  10445000   1.0808441      294.58324     -30.414639     -13548.378    
  10446000   1.0808441      291.32037     -29.875033     -13568.135    
  10447000   1.0808441      302.98937      539.47125     -13497.326    
  10448000   1.0808441      293.37412      118.39647     -13640.115    
  10449000   1.0808441      299.18458     -436.69489     -13583.084    
  10450000   1.0808441      300.81788      163.38721     -13492.779    
  10451000   1.0808441      291.62679      239.82832     -13592.901    
  10452000   1.0808441      295.3346      -232.54506     -13608.971    
  10453000   1.0808441      293.84669     -76.460525     -13635.574    
  10454000   1.0808441      295.35087     -469.9647      -13649.339    
  10455000   1.0808441      301.91192      255.28758     -13546.867    
  10456000   1.0808441      297.88993     -831.02444     -13516.812    
  10457000   1.0808441      299.92191     -306.51515     -13470.781    
  10458000   1.0808441      296.89878     -1221.7164     -13551.381    
  10459000   1.0808441      308.19952      94.578226     -13593.503    
  10460000   1.0808441      294.31807     -448.46778     -13609.047    
  10461000   1.0808441      285.59213      312.18662     -13645.337    
  10462000   1.0808441      305.38408      167.06111     -13527.66     
  10463000   1.0808441      292.63888      178.31498     -13578.993    
  10464000   1.0808441      298.05748     -220.37521     -13471.922    
  10465000   1.0808441      300.03129     -586.65763     -13503.81     
  10466000   1.0808441      292.4984      -602.67546     -13544.708    
  10467000   1.0808441      284.4973      -156.28591     -13675.004    
  10468000   1.0808441      299.42791     -50.568828     -13510.926    
  10469000   1.0808441      310.714       -190.34646     -13394.683    
  10470000   1.0808441      298.43782     -986.07379     -13543.344    
  10471000   1.0808441      284.66066      572.44913     -13691.927    
  10472000   1.0808441      303.71756      79.370663     -13431.234    
  10473000   1.0808441      300.13705      792.29425     -13418.938    
  10474000   1.0808441      299.23345      216.33438     -13535.76     
  10475000   1.0808441      311.40748     -147.37351     -13582.75     
  10476000   1.0808441      294.84201     -226.47965     -13619.626    
  10477000   1.0808441      296.35856      672.81614     -13536.938    
  10478000   1.0808441      295.17609     -300.36894     -13581.389    
  10479000   1.0808441      299.51817      410.30526     -13564.703    
  10480000   1.0808441      295.67831     -293.95333     -13544.444    
  10481000   1.0808441      293.18673      225.43813     -13641.715    
  10482000   1.0808441      300.64861     -64.150848     -13518.972    
  10483000   1.0808441      287.40485     -787.57741     -13555.896    
  10484000   1.0808441      296.77827     -294.7036      -13538.159    
  10485000   1.0808441      304.23729     -577.49558     -13503.407    
  10486000   1.0808441      293.66481     -447.21332     -13583.746    
  10487000   1.0808441      304.62279      40.066387     -13548.791    
  10488000   1.0808441      293.01253     -128.34976     -13579.733    
  10489000   1.0808441      298.29604      227.96927     -13584.663    
  10490000   1.0808441      286.24704     -361.43709     -13596.537    
  10491000   1.0808441      290.25956      564.08014     -13620.565    
  10492000   1.0808441      298.96364     -349.04259     -13543.761    
  10493000   1.0808441      298.84641     -248.10207     -13558.632    
  10494000   1.0808441      298.55553     -435.6721      -13547.405    
  10495000   1.0808441      294.94797     -119.3048      -13644.944    
  10496000   1.0808441      296.86079      217.07318     -13534.432    
  10497000   1.0808441      306.71864     -605.11142     -13471.656    
  10498000   1.0808441      289.42393      271.60098     -13582.561    
  10499000   1.0808441      288.03028     -475.55293     -13598.987    
  10500000   1.0808441      298.43737     -794.16152     -13554.499    
  10501000   1.0808441      305.174       -748.76459     -13534.168    
  10502000   1.0808441      295.65058      282.43387     -13491.187    
  10503000   1.0808441      297.01151     -493.03773     -13580.779    
  10504000   1.0808441      295.55086     -216.06563     -13623.044    
  10505000   1.0808441      295.50809      406.31365     -13599.374    
  10506000   1.0808441      299.31805      418.20601     -13529.337    
  10507000   1.0808441      295.95        -1333.5688     -13513.492    
  10508000   1.0808441      303.88909      409.78298     -13488.358    
  10509000   1.0808441      286.63371      612.26645     -13557.674    
  10510000   1.0808441      284.25424     -312.18909     -13568.835    
  10511000   1.0808441      298.10435     -502.95895     -13474.255    
  10512000   1.0808441      294.6918      -311.3149      -13581.778    
  10513000   1.0808441      301.07281     -528.41316     -13529.536    
  10514000   1.0808441      292.6923      -148.93061     -13619.3      
  10515000   1.0808441      296.64577     -178.79639     -13504.708    
  10516000   1.0808441      292.95503      9.9599713     -13555.044    
  10517000   1.0808441      297.69585      482.72386     -13528.616    
  10518000   1.0808441      295.12784     -647.21021     -13515.144    
  10519000   1.0808441      296.30985      261.29679     -13573.296    
  10520000   1.0808441      289.34006      684.23676     -13624.35     
  10521000   1.0808441      301.9516      -668.51378     -13607.391    
  10522000   1.0808441      297.44533     -519.31445     -13551.162    
  10523000   1.0808441      292.16782      820.58746     -13648.48     
  10524000   1.0808441      283.49497     -540.76705     -13653.358    
  10525000   1.0808441      293.98891      631.95187     -13630.124    
  10526000   1.0808441      303.34537      406.54972     -13653.987    
  10527000   1.0808441      296.8499      -360.90509     -13670.494    
  10528000   1.0808441      286.69528     -560.33515     -13564.888    
  10529000   1.0808441      305.45087     -240.6115      -13537.146    
  10530000   1.0808441      298.01553     -724.15825     -13562.754    
  10531000   1.0808441      295.14454     -196.26575     -13603.261    
  10532000   1.0808441      295.84321      298.21166     -13654.86     
  10533000   1.0808441      300.36483     -287.29441     -13531.157    
  10534000   1.0808441      308.12663     -238.5076      -13433.541    
  10535000   1.0808441      292.5944      -284.04242     -13588.051    
  10536000   1.0808441      297.56832     -106.31913     -13520.87     
  10537000   1.0808441      301.08018     -361.41236     -13545.763    
  10538000   1.0808441      294.64968      159.60741     -13584.488    
  10539000   1.0808441      290.66649      605.22924     -13554.9      
  10540000   1.0808441      299.44917      181.89726     -13428.095    
  10541000   1.0808441      290.01252     -895.04061     -13598.296    
  10542000   1.0808441      294.99464      809.7366      -13466.464    
  10543000   1.0808441      296.25704      423.34524     -13559.31     
  10544000   1.0808441      289.4871      -120.26173     -13634.352    
  10545000   1.0808441      297.13642     -345.30929     -13586.468    
  10546000   1.0808441      299.47222     -419.57959     -13517.773    
  10547000   1.0808441      309.77037      377.15954     -13473.905    
  10548000   1.0808441      288.99968     -673.38993     -13676.563    
  10549000   1.0808441      299.5477       504.23066     -13553.631    
  10550000   1.0808441      301.2511      -790.32333     -13515.151    
Loop time of 4234.11 on 12 procs for 500000 steps with 3162 atoms

Performance: 20.406 ns/day, 1.176 hours/ns, 118.089 timesteps/s
95.0% CPU use with 12 MPI tasks x no OpenMP threads

MPI task timing breakdown:
Section |  min time  |  avg time  |  max time  |%varavg| %total
---------------------------------------------------------------
Pair    | 2060       | 2215.3     | 2353.6     | 217.7 | 52.32
Bond    | 8.984      | 9.2774     | 9.7622     |   8.5 |  0.22
Kspace  | 748.14     | 885.13     | 1039.9     | 342.4 | 20.90
Neigh   | 513.53     | 514.04     | 514.63     |   1.6 | 12.14
Comm    | 126        | 127.82     | 130.09     |  11.7 |  3.02
Output  | 3.8822     | 3.8875     | 3.939      |   0.8 |  0.09
Modify  | 458.9      | 459.42     | 460.08     |   2.0 | 10.85
Other   |            | 19.19      |            |       |  0.45

Nlocal:          263.5 ave         279 max         245 min
Histogram: 1 0 1 1 1 5 0 0 1 2
Nghost:        5567.33 ave        5609 max        5512 min
Histogram: 1 0 1 3 0 2 0 1 1 3
Neighs:         105852 ave      113327 max       95970 min
Histogram: 2 0 1 1 1 0 2 0 3 2

Total # of neighbors = 1270220
Ave neighs/atom = 401.7141
Ave special neighs/atom = 2.0341556
Neighbor list builds = 117242
Dangerous builds = 0

quit
