created by fftool

3162 atoms
2108 bonds
1108 angles
6 atom types
3 bond types
2 angle types
0.000000 32.712215 xlo xhi
0.000000 32.712215 ylo yhi
0.000000 32.712215 zlo zhi

Atoms

      1       1    1  -1.112800  3.047128e+01  3.121378e+01  1.851637e+01  # Ow water
      2       1    2   0.556400  2.965653e+01  3.105775e+01  1.803881e+01  # Hw water
      3       1    2   0.556400  3.024787e+01  3.104890e+01  1.943241e+01  # Hw water
      4       2    1  -1.112800  3.980214e+00  4.242035e+00  1.505590e+00  # Ow water
      5       2    2   0.556400  4.119238e+00  3.295029e+00  1.514522e+00  # Hw water
      6       2    2   0.556400  3.553343e+00  4.429825e+00  2.341500e+00  # Hw water
      7       3    1  -1.112800  2.531269e+01  1.715438e+01  2.827710e+01  # Ow water
      8       3    2   0.556400  2.551532e+01  1.720090e+01  2.734275e+01  # Hw water
      9       3    2   0.556400  2.437521e+01  1.696392e+01  2.831016e+01  # Hw water
     10       4    1  -1.112800  1.689697e+01  1.500098e+00  8.768498e+00  # Ow water
     11       4    2   0.556400  1.785176e+01  1.516833e+00  8.702662e+00  # Hw water
     12       4    2   0.556400  1.663292e+01  2.413808e+00  8.660610e+00  # Hw water
     13       5    1  -1.112800  1.101931e+01  5.879270e+00  1.995131e+00  # Ow water
     14       5    2   0.556400  1.151972e+01  5.227059e+00  1.504783e+00  # Hw water
     15       5    2   0.556400  1.113338e+01  6.690826e+00  1.500564e+00  # Hw water
     16       6    1  -1.112800  8.386537e+00  9.398429e+00  1.310417e+01  # Ow water
     17       6    2   0.556400  9.093582e+00  9.473951e+00  1.246338e+01  # Hw water
     18       6    2   0.556400  8.585012e+00  8.596177e+00  1.358710e+01  # Hw water
     19       7    1  -1.112800  1.482351e+01  3.409675e+00  1.803941e+01  # Ow water
     20       7    2   0.556400  1.527946e+01  3.900456e+00  1.872313e+01  # Hw water
     21       7    2   0.556400  1.482675e+01  3.994378e+00  1.728156e+01  # Hw water
     22       8    1  -1.112800  6.075423e+00  6.972311e+00  1.951534e+01  # Ow water
     23       8    2   0.556400  5.727479e+00  6.280690e+00  1.895246e+01  # Hw water
     24       8    2   0.556400  6.742990e+00  7.403094e+00  1.898147e+01  # Hw water
     25       9    1  -1.112800  9.199745e+00  2.828489e+01  3.027236e+01  # Ow water
     26       9    2   0.556400  9.053159e+00  2.839195e+01  3.121219e+01  # Hw water
     27       9    2   0.556400  8.325403e+00  2.833424e+01  2.988594e+01  # Hw water
     28      10    1  -1.112800  5.693592e+00  4.129806e+00  1.175001e+01  # Ow water
     29      10    2   0.556400  5.929690e+00  4.482155e+00  1.260811e+01  # Hw water
     30      10    2   0.556400  4.839506e+00  4.517106e+00  1.155827e+01  # Hw water
     31      11    1  -1.112800  5.102955e+00  2.804033e+01  1.826318e+01  # Ow water
     32      11    2   0.556400  4.624236e+00  2.745900e+01  1.885404e+01  # Hw water
     33      11    2   0.556400  4.909980e+00  2.770466e+01  1.738779e+01  # Hw water
     34      12    1  -1.112800  1.293214e+01  1.453065e+01  2.790913e+01  # Ow water
     35      12    2   0.556400  1.377786e+01  1.485071e+01  2.759521e+01  # Hw water
     36      12    2   0.556400  1.241413e+01  1.440231e+01  2.711450e+01  # Hw water
     37      13    1  -1.112800  1.613568e+01  2.490660e+00  2.807115e+01  # Ow water
     38      13    2   0.556400  1.650271e+01  3.084389e+00  2.872613e+01  # Hw water
     39      13    2   0.556400  1.579283e+01  1.755351e+00  2.857910e+01  # Hw water
     40      14    1  -1.112800  1.149155e+01  2.932453e+01  7.551727e+00  # Ow water
     41      14    2   0.556400  1.149658e+01  2.991253e+01  8.307020e+00  # Hw water
     42      14    2   0.556400  1.061597e+01  2.893778e+01  7.554496e+00  # Hw water
     43      15    1  -1.112800  2.326473e+01  2.289361e+01  1.491100e+01  # Ow water
     44      15    2   0.556400  2.267712e+01  2.306256e+01  1.417452e+01  # Hw water
     45      15    2   0.556400  2.324116e+01  2.194336e+01  1.502373e+01  # Hw water
     46      16    1  -1.112800  2.432588e+01  1.129145e+01  1.485415e+01  # Ow water
     47      16    2   0.556400  2.513846e+01  1.082880e+01  1.505883e+01  # Hw water
     48      16    2   0.556400  2.398556e+01  1.156683e+01  1.570537e+01  # Hw water
     49      17    1  -1.112800  2.454042e+01  2.728474e+01  6.196018e+00  # Ow water
     50      17    2   0.556400  2.477610e+01  2.765785e+01  7.045412e+00  # Hw water
     51      17    2   0.556400  2.360633e+01  2.708941e+01  6.270553e+00  # Hw water
     52      18    1  -1.112800  2.628225e+01  5.947120e+00  6.265573e+00  # Ow water
     53      18    2   0.556400  2.611879e+01  5.387841e+00  7.024991e+00  # Hw water
     54      18    2   0.556400  2.647702e+01  6.806999e+00  6.638267e+00  # Hw water
     55      19    1  -1.112800  2.042339e+01  5.864737e+00  2.461636e+01  # Ow water
     56      19    2   0.556400  2.060543e+01  6.790369e+00  2.445420e+01  # Hw water
     57      19    2   0.556400  2.127106e+01  5.431986e+00  2.451436e+01  # Hw water
     58      20    1  -1.112800  1.596365e+01  1.729393e+01  2.514839e+01  # Ow water
     59      20    2   0.556400  1.582627e+01  1.664051e+01  2.446253e+01  # Hw water
     60      20    2   0.556400  1.625264e+01  1.807683e+01  2.467957e+01  # Hw water
     61      21    1  -1.112800  1.544321e+01  2.867725e+01  2.532441e+01  # Ow water
     62      21    2   0.556400  1.603973e+01  2.812711e+01  2.583208e+01  # Hw water
     63      21    2   0.556400  1.457320e+01  2.832542e+01  2.551293e+01  # Hw water
     64      22    1  -1.112800  2.077443e+01  2.535674e+01  1.072675e+01  # Ow water
     65      22    2   0.556400  2.005513e+01  2.550496e+01  1.134064e+01  # Hw water
     66      22    2   0.556400  2.048364e+01  2.576766e+01  9.912615e+00  # Hw water
     67      23    1  -1.112800  3.037795e+01  2.762461e+01  1.433280e+01  # Ow water
     68      23    2   0.556400  3.029206e+01  2.775831e+01  1.338889e+01  # Hw water
     69      23    2   0.556400  3.121191e+01  2.716611e+01  1.443534e+01  # Hw water
     70      24    1  -1.112800  2.284321e+01  1.698076e+01  1.341788e+01  # Ow water
     71      24    2   0.556400  2.240593e+01  1.613082e+01  1.346911e+01  # Hw water
     72      24    2   0.556400  2.242369e+01  1.742236e+01  1.267949e+01  # Hw water
     73      25    1  -1.112800  1.758973e+01  1.564484e+00  5.224863e+00  # Ow water
     74      25    2   0.556400  1.849659e+01  1.536868e+00  5.529937e+00  # Hw water
     75      25    2   0.556400  1.706586e+01  1.508220e+00  6.024007e+00  # Hw water
     76      26    1  -1.112800  7.510221e+00  4.494701e+00  6.183592e+00  # Ow water
     77      26    2   0.556400  7.039561e+00  3.759005e+00  6.575330e+00  # Hw water
     78      26    2   0.556400  8.325137e+00  4.112312e+00  5.858140e+00  # Hw water
     79      27    1  -1.112800  2.420332e+01  2.234181e+00  3.121178e+01  # Ow water
     80      27    2   0.556400  2.366048e+01  3.013252e+00  3.109094e+01  # Hw water
     81      27    2   0.556400  2.360857e+01  1.500659e+00  3.105542e+01  # Hw water
     82      28    1  -1.112800  1.070729e+01  1.715866e+01  1.744017e+01  # Ow water
     83      28    2   0.556400  1.051914e+01  1.707110e+01  1.837459e+01  # Hw water
     84      28    2   0.556400  1.106442e+01  1.804206e+01  1.734902e+01  # Hw water
     85      29    1  -1.112800  1.772963e+01  1.018088e+01  2.805430e+01  # Ow water
     86      29    2   0.556400  1.743586e+01  9.283047e+00  2.820865e+01  # Hw water
     87      29    2   0.556400  1.857342e+01  1.008474e+01  2.761271e+01  # Hw water
     88      30    1  -1.112800  1.205121e+01  2.688477e+01  6.420666e+00  # Ow water
     89      30    2   0.556400  1.116898e+01  2.661252e+01  6.168116e+00  # Hw water
     90      30    2   0.556400  1.263188e+01  2.633320e+01  5.896421e+00  # Hw water
     91      31    1  -1.112800  6.019027e+00  1.873285e+01  2.676349e+01  # Ow water
     92      31    2   0.556400  6.450081e+00  1.868187e+01  2.591036e+01  # Hw water
     93      31    2   0.556400  6.505076e+00  1.940723e+01  2.723804e+01  # Hw water
     94      32    1  -1.112800  2.833619e+01  4.048935e+00  2.295386e+01  # Ow water
     95      32    2   0.556400  2.821614e+01  4.034084e+00  2.200433e+01  # Hw water
     96      32    2   0.556400  2.747202e+01  3.839622e+00  2.330832e+01  # Hw water
     97      33    1  -1.112800  1.548248e+01  1.011683e+01  2.647080e+01  # Ow water
     98      33    2   0.556400  1.460210e+01  1.049207e+01  2.645233e+01  # Hw water
     99      33    2   0.556400  1.601812e+01  1.073699e+01  2.597611e+01  # Hw water
    100      34    1  -1.112800  2.079543e+01  4.567872e+00  1.371962e+01  # Ow water
    101      34    2   0.556400  2.147251e+01  4.423713e+00  1.305855e+01  # Hw water
    102      34    2   0.556400  2.002133e+01  4.824255e+00  1.321835e+01  # Hw water
    103      35    1  -1.112800  2.395174e+01  2.635351e+01  3.069074e+01  # Ow water
    104      35    2   0.556400  2.310332e+01  2.635990e+01  3.024760e+01  # Hw water
    105      35    2   0.556400  2.395621e+01  2.715621e+01  3.121216e+01  # Hw water
    106      36    1  -1.112800  6.245817e+00  1.493076e+01  1.266999e+01  # Ow water
    107      36    2   0.556400  5.860589e+00  1.421788e+01  1.317953e+01  # Hw water
    108      36    2   0.556400  6.905487e+00  1.450511e+01  1.212237e+01  # Hw water
    109      37    1  -1.112800  3.261829e+00  6.748294e+00  2.039954e+01  # Ow water
    110      37    2   0.556400  3.380722e+00  7.454296e+00  1.976421e+01  # Hw water
    111      37    2   0.556400  2.991463e+00  5.995414e+00  1.987390e+01  # Hw water
    112      38    1  -1.112800  5.807670e+00  2.519832e+01  6.434578e+00  # Ow water
    113      38    2   0.556400  6.249862e+00  2.462001e+01  7.056076e+00  # Hw water
    114      38    2   0.556400  5.817906e+00  2.605725e+01  6.856910e+00  # Hw water
    115      39    1  -1.112800  1.409870e+01  2.927156e+01  1.147242e+01  # Ow water
    116      39    2   0.556400  1.389336e+01  2.847477e+01  1.196150e+01  # Hw water
    117      39    2   0.556400  1.503621e+01  2.920659e+01  1.129050e+01  # Hw water
    118      40    1  -1.112800  7.859370e+00  1.683825e+01  8.407247e+00  # Ow water
    119      40    2   0.556400  8.343670e+00  1.658531e+01  9.193189e+00  # Hw water
    120      40    2   0.556400  7.680037e+00  1.777101e+01  8.525658e+00  # Hw water
    121      41    1  -1.112800  1.952458e+01  8.096700e+00  1.681625e+01  # Ow water
    122      41    2   0.556400  1.930328e+01  8.274661e+00  1.590215e+01  # Hw water
    123      41    2   0.556400  2.017968e+01  7.400114e+00  1.677334e+01  # Hw water
    124      42    1  -1.112800  1.501124e+00  8.872730e+00  2.943222e+01  # Ow water
    125      42    2   0.556400  2.111702e+00  9.595392e+00  2.957776e+01  # Hw water
    126      42    2   0.556400  1.669511e+00  8.593848e+00  2.853217e+01  # Hw water
    127      43    1  -1.112800  3.121198e+01  1.788321e+01  2.532509e+01  # Ow water
    128      43    2   0.556400  3.035984e+01  1.812371e+01  2.568873e+01  # Hw water
    129      43    2   0.556400  3.114228e+01  1.694460e+01  2.515078e+01  # Hw water
    130      44    1  -1.112800  1.289405e+01  2.385361e+01  1.731292e+01  # Ow water
    131      44    2   0.556400  1.314189e+01  2.334340e+01  1.654189e+01  # Hw water
    132      44    2   0.556400  1.193708e+01  2.386506e+01  1.729568e+01  # Hw water
    133      45    1  -1.112800  6.303664e+00  1.983999e+01  1.407006e+01  # Ow water
    134      45    2   0.556400  6.533277e+00  2.054855e+01  1.467127e+01  # Hw water
    135      45    2   0.556400  7.033892e+00  1.922449e+01  1.413448e+01  # Hw water
    136      46    1  -1.112800  1.134706e+01  6.232516e+00  8.348215e+00  # Ow water
    137      46    2   0.556400  1.084500e+01  6.635300e+00  7.639746e+00  # Hw water
    138      46    2   0.556400  1.173698e+01  5.452837e+00  7.952875e+00  # Hw water
    139      47    1  -1.112800  2.219871e+01  2.014188e+01  1.300576e+01  # Ow water
    140      47    2   0.556400  2.242932e+01  2.091139e+01  1.248529e+01  # Hw water
    141      47    2   0.556400  2.147632e+01  2.043536e+01  1.356096e+01  # Hw water
    142      48    1  -1.112800  1.500122e+00  2.415055e+01  2.368337e+01  # Ow water
    143      48    2   0.556400  2.044708e+00  2.435677e+01  2.444306e+01  # Hw water
    144      48    2   0.556400  2.123079e+00  2.403419e+01  2.296600e+01  # Hw water
    145      49    1  -1.112800  1.373167e+01  6.118765e+00  1.060696e+01  # Ow water
    146      49    2   0.556400  1.419121e+01  6.921286e+00  1.085396e+01  # Hw water
    147      49    2   0.556400  1.290808e+01  6.154388e+00  1.109344e+01  # Hw water
    148      50    1  -1.112800  8.720664e+00  3.118613e+01  5.908280e+00  # Ow water
    149      50    2   0.556400  9.336470e+00  3.118949e+01  6.641083e+00  # Hw water
    150      50    2   0.556400  7.856942e+00  3.117422e+01  6.320678e+00  # Hw water
    151      51    1  -1.112800  1.574031e+00  8.255651e+00  2.492017e+01  # Ow water
    152      51    2   0.556400  1.552636e+00  7.411365e+00  2.537067e+01  # Hw water
    153      51    2   0.556400  1.508746e+00  8.903676e+00  2.562162e+01  # Hw water
    154      52    1  -1.112800  7.712742e+00  3.079081e+01  2.483294e+01  # Ow water
    155      52    2   0.556400  8.385462e+00  3.121219e+01  2.429804e+01  # Hw water
    156      52    2   0.556400  7.819699e+00  3.117787e+01  2.570183e+01  # Hw water
    157      53    1  -1.112800  1.808812e+00  1.901080e+01  1.797908e+01  # Ow water
    158      53    2   0.556400  1.503633e+00  1.982741e+01  1.758379e+01  # Hw water
    159      53    2   0.556400  1.523093e+00  1.832860e+01  1.737148e+01  # Hw water
    160      54    1  -1.112800  2.527987e+01  8.361683e+00  3.627282e+00  # Ow water
    161      54    2   0.556400  2.574453e+01  9.173502e+00  3.830430e+00  # Hw water
    162      54    2   0.556400  2.520409e+01  7.911549e+00  4.468629e+00  # Hw water
    163      55    1  -1.112800  2.789153e+01  1.788211e+01  1.427013e+01  # Ow water
    164      55    2   0.556400  2.760873e+01  1.793085e+01  1.335696e+01  # Hw water
    165      55    2   0.556400  2.871219e+01  1.837423e+01  1.429380e+01  # Hw water
    166      56    1  -1.112800  9.071747e+00  4.046975e+00  9.136697e+00  # Ow water
    167      56    2   0.556400  9.928725e+00  4.144825e+00  9.551718e+00  # Hw water
    168      56    2   0.556400  9.067784e+00  4.700469e+00  8.437297e+00  # Hw water
    169      57    1  -1.112800  1.627990e+01  2.695064e+01  1.223758e+01  # Ow water
    170      57    2   0.556400  1.603683e+01  2.720663e+01  1.312731e+01  # Hw water
    171      57    2   0.556400  1.676537e+01  2.613301e+01  1.234727e+01  # Hw water
    172      58    1  -1.112800  1.127450e+01  2.744858e+01  2.276474e+01  # Ow water
    173      58    2   0.556400  1.121113e+01  2.678526e+01  2.345192e+01  # Hw water
    174      58    2   0.556400  1.108883e+01  2.697352e+01  2.195475e+01  # Hw water
    175      59    1  -1.112800  5.006545e+00  2.770734e+01  1.693255e+00  # Ow water
    176      59    2   0.556400  5.919014e+00  2.748013e+01  1.514360e+00  # Hw water
    177      59    2   0.556400  4.517708e+00  2.690739e+01  1.500005e+00  # Hw water
    178      60    1  -1.112800  4.353182e+00  3.083924e+01  2.500643e+01  # Ow water
    179      60    2   0.556400  3.569674e+00  3.120995e+01  2.541253e+01  # Hw water
    180      60    2   0.556400  5.080723e+00  3.121066e+01  2.550539e+01  # Hw water
    181      61    1  -1.112800  1.209108e+01  1.099437e+01  2.546232e+01  # Ow water
    182      61    2   0.556400  1.191158e+01  1.019348e+01  2.595485e+01  # Hw water
    183      61    2   0.556400  1.252354e+01  1.069293e+01  2.466336e+01  # Hw water
    184      62    1  -1.112800  1.775895e+01  2.840226e+01  6.178133e+00  # Ow water
    185      62    2   0.556400  1.709970e+01  2.803343e+01  6.765985e+00  # Hw water
    186      62    2   0.556400  1.842112e+01  2.877216e+01  6.762037e+00  # Hw water
    187      63    1  -1.112800  1.332173e+01  1.317143e+01  8.834478e+00  # Ow water
    188      63    2   0.556400  1.399016e+01  1.382847e+01  9.028719e+00  # Hw water
    189      63    2   0.556400  1.249683e+01  1.365679e+01  8.848729e+00  # Hw water
    190      64    1  -1.112800  2.121774e+01  2.609365e+01  1.917995e+01  # Ow water
    191      64    2   0.556400  2.172799e+01  2.543408e+01  1.964989e+01  # Hw water
    192      64    2   0.556400  2.073327e+01  2.655494e+01  1.986458e+01  # Hw water
    193      65    1  -1.112800  2.089788e+00  2.821335e+01  2.947900e+01  # Ow water
    194      65    2   0.556400  1.507788e+00  2.783649e+01  3.013891e+01  # Hw water
    195      65    2   0.556400  1.506015e+00  2.848265e+01  2.876983e+01  # Hw water
    196      66    1  -1.112800  6.941385e+00  1.500380e+00  2.232699e+01  # Ow water
    197      66    2   0.556400  7.853006e+00  1.791719e+00  2.230973e+01  # Hw water
    198      66    2   0.556400  6.702137e+00  1.515410e+00  2.325369e+01  # Hw water
    199      67    1  -1.112800  6.486940e+00  4.148095e+00  3.656165e+00  # Ow water
    200      67    2   0.556400  5.699255e+00  3.973577e+00  4.171263e+00  # Hw water
    201      67    2   0.556400  6.197580e+00  4.752196e+00  2.972381e+00  # Hw water
    202      68    1  -1.112800  1.176515e+01  1.211053e+01  2.848991e+01  # Ow water
    203      68    2   0.556400  1.111257e+01  1.207787e+01  2.779041e+01  # Hw water
    204      68    2   0.556400  1.257487e+01  1.181051e+01  2.807692e+01  # Hw water
    205      69    1  -1.112800  3.797609e+00  3.121206e+01  1.294146e+01  # Ow water
    206      69    2   0.556400  4.013258e+00  3.116195e+01  1.201022e+01  # Hw water
    207      69    2   0.556400  4.235125e+00  3.045464e+01  1.333021e+01  # Hw water
    208      70    1  -1.112800  1.186102e+01  3.093202e+01  2.318600e+01  # Ow water
    209      70    2   0.556400  1.182838e+01  3.015354e+01  2.263000e+01  # Hw water
    210      70    2   0.556400  1.094877e+01  3.121218e+01  2.326045e+01  # Hw water
    211      71    1  -1.112800  2.417176e+01  6.114291e+00  1.274507e+01  # Ow water
    212      71    2   0.556400  2.428995e+01  6.813510e+00  1.210214e+01  # Hw water
    213      71    2   0.556400  2.490652e+01  6.217593e+00  1.334979e+01  # Hw water
    214      72    1  -1.112800  3.075496e+01  2.543163e+01  1.501063e+00  # Ow water
    215      72    2   0.556400  3.121188e+01  2.475296e+01  1.997914e+00  # Hw water
    216      72    2   0.556400  3.120730e+01  2.624319e+01  1.731263e+00  # Hw water
    217      73    1  -1.112800  1.560646e+01  3.792676e+00  3.110428e+01  # Ow water
    218      73    2   0.556400  1.560730e+01  2.839031e+00  3.118667e+01  # Hw water
    219      73    2   0.556400  1.652596e+01  4.042308e+00  3.119614e+01  # Hw water
    220      74    1  -1.112800  2.286045e+01  9.435477e+00  4.515204e+00  # Ow water
    221      74    2   0.556400  2.268899e+01  9.960132e+00  5.297230e+00  # Hw water
    222      74    2   0.556400  2.201839e+01  9.398621e+00  4.061556e+00  # Hw water
    223      75    1  -1.112800  5.178303e+00  2.846502e+01  3.061155e+01  # Ow water
    224      75    2   0.556400  4.409367e+00  2.846786e+01  3.118161e+01  # Hw water
    225      75    2   0.556400  5.922484e+00  2.850575e+01  3.121219e+01  # Hw water
    226      76    1  -1.112800  2.634999e+01  2.104669e+01  1.607628e+00  # Ow water
    227      76    2   0.556400  2.549328e+01  2.063352e+01  1.500123e+00  # Hw water
    228      76    2   0.556400  2.640189e+01  2.125221e+01  2.541063e+00  # Hw water
    229      77    1  -1.112800  2.119843e+01  2.842001e+01  2.441590e+01  # Ow water
    230      77    2   0.556400  2.178169e+01  2.772231e+01  2.411714e+01  # Hw water
    231      77    2   0.556400  2.083470e+01  2.878970e+01  2.361138e+01  # Hw water
    232      78    1  -1.112800  3.116936e+01  2.405112e+01  7.367647e+00  # Ow water
    233      78    2   0.556400  3.116684e+01  2.431523e+01  6.447611e+00  # Hw water
    234      78    2   0.556400  3.115763e+01  2.487546e+01  7.854007e+00  # Hw water
    235      79    1  -1.112800  5.731998e+00  2.700226e+01  2.133764e+01  # Ow water
    236      79    2   0.556400  5.873946e+00  2.615071e+01  2.092418e+01  # Hw water
    237      79    2   0.556400  6.396132e+00  2.757149e+01  2.094889e+01  # Hw water
    238      80    1  -1.112800  9.543980e+00  4.984549e+00  1.734418e+01  # Ow water
    239      80    2   0.556400  8.628142e+00  4.808738e+00  1.755996e+01  # Hw water
    240      80    2   0.556400  9.511766e+00  5.742343e+00  1.676028e+01  # Hw water
    241      81    1  -1.112800  2.641360e+01  1.169613e+01  2.698848e+01  # Ow water
    242      81    2   0.556400  2.599131e+01  1.176495e+01  2.784473e+01  # Hw water
    243      81    2   0.556400  2.702485e+01  1.096527e+01  2.708039e+01  # Hw water
    244      82    1  -1.112800  1.362915e+01  1.652593e+01  8.636157e+00  # Ow water
    245      82    2   0.556400  1.283932e+01  1.663119e+01  8.105770e+00  # Hw water
    246      82    2   0.556400  1.433915e+01  1.645572e+01  7.998033e+00  # Hw water
    247      83    1  -1.112800  1.261490e+01  9.462225e+00  1.949552e+01  # Ow water
    248      83    2   0.556400  1.292792e+01  1.007096e+01  1.882642e+01  # Hw water
    249      83    2   0.556400  1.166901e+01  9.417627e+00  1.935576e+01  # Hw water
    250      84    1  -1.112800  3.728816e+00  1.983934e+00  2.298849e+01  # Ow water
    251      84    2   0.556400  4.297852e+00  2.742655e+00  2.311799e+01  # Hw water
    252      84    2   0.556400  4.133590e+00  1.500512e+00  2.226829e+01  # Hw water
    253      85    1  -1.112800  7.465893e+00  2.311484e+01  3.029263e+01  # Ow water
    254      85    2   0.556400  7.550155e+00  2.336847e+01  3.121176e+01  # Hw water
    255      85    2   0.556400  8.209777e+00  2.353306e+01  2.985910e+01  # Hw water
    256      86    1  -1.112800  2.148039e+01  2.112462e+01  2.129350e+00  # Ow water
    257      86    2   0.556400  2.100526e+01  2.166734e+01  1.500115e+00  # Hw water
    258      86    2   0.556400  2.134658e+01  2.156019e+01  2.971138e+00  # Hw water
    259      87    1  -1.112800  1.587260e+01  4.925985e+00  7.346906e+00  # Ow water
    260      87    2   0.556400  1.607597e+01  5.698568e+00  6.819661e+00  # Hw water
    261      87    2   0.556400  1.594362e+01  5.227938e+00  8.252450e+00  # Hw water
    262      88    1  -1.112800  3.118276e+01  2.113978e+01  1.596941e+00  # Ow water
    263      88    2   0.556400  3.025607e+01  2.135904e+01  1.500016e+00  # Hw water
    264      88    2   0.556400  3.121217e+01  2.018557e+01  1.527301e+00  # Hw water
    265      89    1  -1.112800  3.113987e+01  6.389142e+00  4.354332e+00  # Ow water
    266      89    2   0.556400  3.055729e+01  7.066774e+00  4.697323e+00  # Hw water
    267      89    2   0.556400  3.118639e+01  5.736496e+00  5.052987e+00  # Hw water
    268      90    1  -1.112800  2.161358e+01  2.273249e+01  2.190537e+01  # Ow water
    269      90    2   0.556400  2.106441e+01  2.313509e+01  2.123266e+01  # Hw water
    270      90    2   0.556400  2.245725e+01  2.317734e+01  2.182435e+01  # Hw water
    271      91    1  -1.112800  2.432849e+01  1.992581e+01  2.572200e+01  # Ow water
    272      91    2   0.556400  2.498910e+01  2.006613e+01  2.640032e+01  # Hw water
    273      91    2   0.556400  2.380707e+01  1.919021e+01  2.604332e+01  # Hw water
    274      92    1  -1.112800  2.361682e+01  1.013956e+01  1.226683e+01  # Ow water
    275      92    2   0.556400  2.279963e+01  1.026738e+01  1.178507e+01  # Hw water
    276      92    2   0.556400  2.424730e+01  9.864474e+00  1.160122e+01  # Hw water
    277      93    1  -1.112800  7.002402e+00  2.682066e+01  9.493857e+00  # Ow water
    278      93    2   0.556400  6.754465e+00  2.589794e+01  9.435897e+00  # Hw water
    279      93    2   0.556400  6.189491e+00  2.729840e+01  9.329045e+00  # Hw water
    280      94    1  -1.112800  7.026200e+00  1.163871e+01  1.692290e+01  # Ow water
    281      94    2   0.556400  7.148622e+00  1.176632e+01  1.786362e+01  # Hw water
    282      94    2   0.556400  6.319082e+00  1.099686e+01  1.685779e+01  # Hw water
    283      95    1  -1.112800  1.645086e+01  1.531883e+00  2.011028e+01  # Ow water
    284      95    2   0.556400  1.556856e+01  1.534152e+00  1.973912e+01  # Hw water
    285      95    2   0.556400  1.631309e+01  1.565720e+00  2.105691e+01  # Hw water
    286      96    1  -1.112800  1.159557e+01  1.791008e+01  5.153900e+00  # Ow water
    287      96    2   0.556400  1.231235e+01  1.817659e+01  4.578211e+00  # Hw water
    288      96    2   0.556400  1.188643e+01  1.816018e+01  6.030869e+00  # Hw water
    289      97    1  -1.112800  1.632147e+00  2.237057e+01  5.434907e+00  # Ow water
    290      97    2   0.556400  1.507800e+00  2.266651e+01  4.533139e+00  # Hw water
    291      97    2   0.556400  1.520833e+00  2.316032e+01  5.964179e+00  # Hw water
    292      98    1  -1.112800  1.495298e+01  3.105250e+01  3.050672e+01  # Ow water
    293      98    2   0.556400  1.545115e+01  3.120953e+01  2.970460e+01  # Hw water
    294      98    2   0.556400  1.558956e+01  3.117104e+01  3.121167e+01  # Hw water
    295      99    1  -1.112800  2.250408e+01  1.282782e+01  2.249686e+01  # Ow water
    296      99    2   0.556400  2.185783e+01  1.286321e+01  2.179164e+01  # Hw water
    297      99    2   0.556400  2.313058e+01  1.216127e+01  2.221502e+01  # Hw water
    298     100    1  -1.112800  2.319615e+01  2.168527e+01  7.171566e+00  # Ow water
    299     100    2   0.556400  2.362482e+01  2.113206e+01  6.518552e+00  # Hw water
    300     100    2   0.556400  2.388809e+01  2.226847e+01  7.483511e+00  # Hw water
    301     101    1  -1.112800  1.903860e+01  3.880666e+00  3.022239e+01  # Ow water
    302     101    2   0.556400  1.929356e+01  4.543289e+00  3.086438e+01  # Hw water
    303     101    2   0.556400  1.950749e+01  4.126265e+00  2.942486e+01  # Hw water
    304     102    1  -1.112800  8.982857e+00  3.027839e+01  1.472651e+01  # Ow water
    305     102    2   0.556400  8.097937e+00  2.991921e+01  1.479078e+01  # Hw water
    306     102    2   0.556400  8.851491e+00  3.121170e+01  1.455946e+01  # Hw water
    307     103    1  -1.112800  2.737135e+01  1.583084e+00  2.011181e+00  # Ow water
    308     103    2   0.556400  2.770518e+01  1.500379e+00  2.904456e+00  # Hw water
    309     103    2   0.556400  2.812315e+01  1.884194e+00  1.500930e+00  # Hw water
    310     104    1  -1.112800  2.039827e+01  3.116647e+01  2.151598e+01  # Ow water
    311     104    2   0.556400  2.134846e+01  3.119310e+01  2.140349e+01  # Hw water
    312     104    2   0.556400  2.005027e+01  3.119201e+01  2.062464e+01  # Hw water
    313     105    1  -1.112800  1.332845e+01  2.821297e+01  2.388679e+00  # Ow water
    314     105    2   0.556400  1.330164e+01  2.856898e+01  1.500555e+00  # Hw water
    315     105    2   0.556400  1.365654e+01  2.893372e+01  2.926354e+00  # Hw water
    316     106    1  -1.112800  1.500308e+00  5.227372e+00  1.404749e+01  # Ow water
    317     106    2   0.556400  1.589664e+00  5.534800e+00  1.314542e+01  # Hw water
    318     106    2   0.556400  1.575304e+00  4.275161e+00  1.398506e+01  # Hw water
    319     107    1  -1.112800  1.411623e+01  5.925918e+00  2.096850e+00  # Ow water
    320     107    2   0.556400  1.440489e+01  5.216139e+00  1.523164e+00  # Hw water
    321     107    2   0.556400  1.388131e+01  6.636426e+00  1.500010e+00  # Hw water
    322     108    1  -1.112800  1.884238e+01  2.992246e+01  2.840551e+01  # Ow water
    323     108    2   0.556400  1.949328e+01  2.943884e+01  2.891410e+01  # Hw water
    324     108    2   0.556400  1.920594e+01  3.080446e+01  2.832724e+01  # Hw water
    325     109    1  -1.112800  1.717088e+01  2.094073e+01  6.219688e+00  # Ow water
    326     109    2   0.556400  1.674886e+01  2.045234e+01  6.926512e+00  # Hw water
    327     109    2   0.556400  1.772462e+01  2.158043e+01  6.667322e+00  # Hw water
    328     110    1  -1.112800  1.515636e+01  2.596294e+01  4.872534e+00  # Ow water
    329     110    2   0.556400  1.476529e+01  2.648832e+01  4.174482e+00  # Hw water
    330     110    2   0.556400  1.606026e+01  2.627286e+01  4.928490e+00  # Hw water
    331     111    1  -1.112800  3.031365e+00  2.073540e+00  1.606014e+01  # Ow water
    332     111    2   0.556400  2.930338e+00  2.947839e+00  1.568381e+01  # Hw water
    333     111    2   0.556400  3.167338e+00  1.501417e+00  1.530488e+01  # Hw water
    334     112    1  -1.112800  2.505410e+01  7.595527e+00  8.853200e+00  # Ow water
    335     112    2   0.556400  2.497270e+01  7.996375e+00  9.718603e+00  # Hw water
    336     112    2   0.556400  2.468758e+01  6.717739e+00  8.959859e+00  # Hw water
    337     113    1  -1.112800  8.666766e+00  2.836282e+01  2.705338e+01  # Ow water
    338     113    2   0.556400  8.357341e+00  2.865692e+01  2.619665e+01  # Hw water
    339     113    2   0.556400  9.179691e+00  2.909815e+01  2.738868e+01  # Hw water
    340     114    1  -1.112800  1.623488e+00  1.304968e+01  3.063163e+01  # Ow water
    341     114    2   0.556400  1.500038e+00  1.354996e+01  2.982497e+01  # Hw water
    342     114    2   0.556400  1.526571e+00  1.213567e+01  3.036439e+01  # Hw water
    343     115    1  -1.112800  2.283561e+01  4.298981e+00  2.739462e+01  # Ow water
    344     115    2   0.556400  2.281468e+01  4.163859e+00  2.644723e+01  # Hw water
    345     115    2   0.556400  2.192905e+01  4.173453e+00  2.767502e+01  # Hw water
    346     116    1  -1.112800  1.938339e+01  2.700811e+01  1.493755e+00  # Ow water