LAMMPS (23 Jun 2022 - Update 2)
WARNING: Using I/O redirection is unreliable with parallel runs. Better use -in switch to read input file. (../lammps.cpp:530)
####################################################
# Preprocessing Li2SO4 in water
# 1m 298 K and 1 atm
#################### SETTING UP ####################
units real
dimension 3
newton on
boundary p p p
atom_style full

#################### VARIABLES ####################
variable Temp equal 298.15    # Temperature in K
variable Pres equal 1.0       # Pressure in atm.

variable RandomSeed equal 12 # The random seed for velocity
variable tstep equal 1.0      # 1fs
variable Ninptpre equal 10000 # Pre-initialize the NPT ensemble (very small timesteps)
variable Ninpt equal 10000000  # Initialize the NPT ensemble
variable Npnpt equal 10000000  # Production in the NPT ensemble (volume)
variable Ninvtpre equal 10000 # Pre-initialize the NVT ensemble (very small timesteps)
variable Ninvt equal 500000   # Initialize the NVT ensemble
variable Nrun equal 50000     # production in the NVT ensemble (Transport properties) 1ns
variable Nf equal 1000         # Nfreq (fix ave/time and thermo)
variable Ne equal  1         # Nevery (fix ave/time)
variable Nr equal ${Nf}/${Ne} # Nrepeat (fix ave/time)
variable Nr equal 1000/${Ne} 
variable Nr equal 1000/1 
variable NBR equal ${Npnpt}/100 # Block averaging for density (NPT)
variable NBR equal 10000000/100 
variable Nd equal ${Nrun}/10 # Frequency of outputting positions of atoms in the NVT ensemble
variable Nd equal 50000/10 

variable nb equal 10          # Number of blocks (fix ordern)
variable nbe equal 20         # Number of block elements (fix ordern)
variable Nvisc equal 5        # Nevery for viscosity (fix ordern: sample data at (Nvisc*2))
variable Ncond equal 5        # Nevery for Tconductivity (fix ordern: sample data at (Ncond*2))
variable Ndiff equal 1000     # Nevery for diffusivity (fix ordern: sample data at (Ndiff))
variable Nwrit equal 100000   # Nwrite for transport properties (fix ordern: write every (Nwrit))

variable Nrdfe equal 1000     # Nevery for RDF (fix ave/time)
variable Nrdfw equal 1000     # Nwrite for RDF (compute rdf/ext: write every (Nrdfw*Nrdfe))
variable binnum equal 2000    # Number of bins for RDF

#################### ATOM DEFINITION and FORCEFIELD ####################
read_data ./data.lmp                     # read the positions
Reading data file ...
  orthogonal box = (0 0 0) to (32.712215 32.712215 32.712215)
  2 by 2 by 3 MPI processor grid
  reading atoms ...
  3162 atoms
  scanning bonds ...
  4 = max bonds/atom
  scanning angles ...
  6 = max angles/atom
  reading bonds ...
  2108 bonds
  reading angles ...
  1108 angles
Finding 1-2 1-3 1-4 neighbors ...
  special bond factors lj:    0        0        0       
  special bond factors coul:  0        0        0       
     4 = max # of 1-2 neighbors
     3 = max # of 1-3 neighbors
     3 = max # of 1-4 neighbors
     4 = max # of special neighbors
  special bonds CPU = 0.003 seconds
  read_data CPU = 0.031 seconds
include ./forcefield.data                # read the force field
#--------INTERMOLECULAR POTENTIAL -------------------#
# ---------------Developed for Li2SO4 in water (tip4p/2005) system-----#

mass 1 15.9994 # Ow
mass 2 1.008 # Hw
mass 3 6.891  # Li  -0.01, which went to ghost
mass 4 0.05 # m ghost of lithium
mass 5 0.05 # S  Center site without weight
mass 6 24.0027 # Os (added sulfur weight)


pair_style lj/cut/tip4p/long 1 2 1 1 0.1546 10.0
kspace_style pppm/tip4p 1.0e-5
pair_modify mix arithmetic tail yes # ATC and Lorentz-Berthelot combining rules

#-----------------Combinations----------------------------
# atomtype atomtype epsilon sigma

pair_coeff 1 1 0.185200 3.1589     # Ow-Ow
pair_coeff 1 2 0.000000 0.0000     # Ow-Hw
pair_coeff 1 3 0.167459 2.12       # Ow-Li
pair_coeff 1 4 0.000000 0.0000     # Ow-m
pair_coeff 1 5 0.215246 3.35445    # Ow-S  COMPUTE BY HAND LB mix
pair_coeff 1 6 0.150335 3.40445    # Ow-Os

pair_coeff 2 2 0.000000 0.0000     # Hw-Hw
pair_coeff 2 3 0.000000 0.0000     # Hw-Li
pair_coeff 2 4 0.000000 0.0000     # Hw-m
pair_coeff 2 5 0.000000 0.0000     # Hw-S
pair_coeff 2 6 0.000000 0.0000     # Hw-Os

pair_coeff 3 3 0.103989 1.4397     # Li-Li
pair_coeff 3 4 0.000000 0.0000     # Li-m
pair_coeff 3 5 0.161291 2.49485    # Li-S   COMPUTE BY HAND LB mix
pair_coeff 3 6 0.192067 2.844850   # Li-Os

pair_coeff 4 4 0.000000 0.0000     # m-m
pair_coeff 4 5 0.000000 0.0000     # m-S
pair_coeff 4 6 0.000000 0.0000     # m-Os

pair_coeff 5 5 0.250167 3.5500     # S-S
pair_coeff 5 6 0.223762 3.6000     # S-Os  CHECK BY HAND LB mix

pair_coeff 6 6 0.200143 3.6500     # Os-Os

bond_style  harmonic
bond_coeff 1 2000 0.9572           # Ow-Hw
bond_coeff 2 1000 0.1		   # Li-m
bond_coeff 3 1000 1.490		   # S-Os

angle_style harmonic
angle_coeff 1 200 104.52           # H-Ow-H
angle_coeff 2 200 109.47           # Os-S-Os

#dihedral_style none
#improper_style none

set type 1 charge -1.1128          # O
Setting atom values ...
  1000 settings made for charge
set type 2 charge +0.5564          # OH
Setting atom values ...
  2000 settings made for charge
set type 3 charge +0.8500          # Li
Setting atom values ...
  36 settings made for charge
set type 4 charge 0		   # m
Setting atom values ...
  36 settings made for charge
set type 5 charge +0.9000          # S
Setting atom values ...
  18 settings made for charge
set type 6 charge -0.6500          # Os
Setting atom values ...
  72 settings made for charge


#################### INITIALIZATION ####################
# groups for the central atoms of water (O)

group wat type 1		# O water
1000 atoms in group wat
group Li type 3			# Lithium atom
36 atoms in group Li
group S type 5			# S sulfite group centre
18 atoms in group S

# neigbor lists
neighbor 2.0 bin
neigh_modify every 1 delay 0 check yes

# velocity-Verlet integrator
run_style verlet

# initializing velocities
velocity all create ${Temp} ${RandomSeed}
velocity all create 298.15 ${RandomSeed}
velocity all create 298.15 12

# rate of writing thermal properties to the log file
thermo_style custom step density temp press etotal
thermo_modify flush yes
thermo ${Nf}
thermo 1000

#################### 2) Initialize the NPT ensemble ####################
######### Go to the correct temperature now ant initiate that ##########
fix integrate all rigid/npt/small molecule temp ${Temp} ${Temp} 10.0 iso ${Pres} ${Pres} 100.0
fix integrate all rigid/npt/small molecule temp 298.15 ${Temp} 10.0 iso ${Pres} ${Pres} 100.0
fix integrate all rigid/npt/small molecule temp 298.15 298.15 10.0 iso ${Pres} ${Pres} 100.0
fix integrate all rigid/npt/small molecule temp 298.15 298.15 10.0 iso 1 ${Pres} 100.0
fix integrate all rigid/npt/small molecule temp 298.15 298.15 10.0 iso 1 1 100.0
  create bodies CPU = 0.001 seconds
  1054 rigid bodies with 3162 atoms
  1.4900946 = max distance from body owner to body atom

# add dump trajectory

# Initializing the whole system with very small timesteps in the NPT ensemble
timestep 0.001
run ${Ninptpre}
run 10000
PPPM initialization ...
  extracting TIP4P info from pair style
  using 12-bit tables for long-range coulomb (../kspace.cpp:342)
  G vector (1/distance) = 0.30890196
  grid = 30 30 30
  stencil order = 5
  estimated absolute RMS force accuracy = 0.0039074082
  estimated relative force accuracy = 1.1767044e-05
  using double precision KISS FFT
  3d grid and FFT values/proc = 8228 2700
Generated 0 of 15 mixed pair_coeff terms from arithmetic mixing rule
Neighbor list info ...
  update every 1 steps, delay 0 steps, check yes
  max neighbors/atom: 2000, page size: 100000
  master list distance cutoff = 12.3092
  ghost atom cutoff = 12.3092
  binsize = 6.1546, bins = 6 6 6
  1 neighbor lists, perpetual/occasional/extra = 1 0 0
  (1) pair lj/cut/tip4p/long, perpetual
      attributes: half, newton on
      pair build: half/bin/newton
      stencil: half/bin/3d
      bin: standard
Per MPI rank memory allocation (min/avg/max) = 16.41 | 16.47 | 16.8 Mbytes
   Step        Density          Temp          Press          TotEng    
         0   0.94847729     301.59587      2467852.7      1632.3594    
      1000   0.94814608     312.56584      28907.348      1626.8402    
      2000   0.94725274     343.67185      28242.328      1610.3821    
      3000   0.94581133     393.10349      27133.048      1577.5613    
      4000   0.94384525     457.29269      25576.747      1516.8845    
      5000   0.94138739     532.3035       23578.999      1419.8885    
      6000   0.93847989     616.229        21187.431      1294.2277    
      7000   0.93517309     703.93686      18579.455      1130.1172    
      8000   0.93152196     791.04297      16047.608      925.53847    
      9000   0.92758094     874.56167      13642.072      687.18213    
     10000   0.92340294     950.4287       11145.179      414.26788    
Loop time of 84.6266 on 12 procs for 10000 steps with 3162 atoms

Performance: 0.010 ns/day, 2350.738 hours/ns, 118.166 timesteps/s
95.0% CPU use with 12 MPI tasks x no OpenMP threads

MPI task timing breakdown:
Section |  min time  |  avg time  |  max time  |%varavg| %total
---------------------------------------------------------------
Pair    | 46.875     | 49.848     | 52.871     |  28.5 | 58.90
Bond    | 0.20614    | 0.22553    | 0.24366    |   2.2 |  0.27
Kspace  | 13.531     | 16.61      | 19.435     |  48.5 | 19.63
Neigh   | 0.0036735  | 0.003697   | 0.003724   |   0.0 |  0.00
Comm    | 1.6181     | 1.7762     | 1.9235     |   7.6 |  2.10
Output  | 0.00063806 | 0.00082445 | 0.0028129  |   0.0 |  0.00
Modify  | 12.638     | 14.328     | 15.855     |  35.7 | 16.93
Other   |            | 1.835      |            |       |  2.17

Nlocal:          263.5 ave         277 max         253 min
Histogram: 1 2 2 0 1 4 0 1 0 1
Nghost:        4972.17 ave        5125 max        4705 min
Histogram: 4 0 0 0 0 0 0 0 2 6
Neighs:        90938.1 ave       97941 max       86426 min
Histogram: 4 1 1 0 2 0 2 1 0 1

Total # of neighbors = 1091257
Ave neighs/atom = 345.11607
Ave special neighs/atom = 2.0341556
Neighbor list builds = 1
Dangerous builds = 0
timestep 0.01
run ${Ninptpre}
run 10000
PPPM initialization ...
  extracting TIP4P info from pair style
  using 12-bit tables for long-range coulomb (../kspace.cpp:342)
  G vector (1/distance) = 0.30825315
  grid = 30 30 30
  stencil order = 5
  estimated absolute RMS force accuracy = 0.0040129566
  estimated relative force accuracy = 1.2084899e-05
  using double precision KISS FFT
  3d grid and FFT values/proc = 8228 2700
Generated 0 of 15 mixed pair_coeff terms from arithmetic mixing rule
Per MPI rank memory allocation (min/avg/max) = 16.41 | 16.47 | 16.8 Mbytes
   Step        Density          Temp          Press          TotEng    
     10000   0.92340294     950.4287       2477.5749      414.26799    
     11000   0.87912205     1032.3308     -4407.2988     -3011.9358    
     12000   0.84766476     768.77712     -7738.8742     -5158.0285    
     13000   0.83460844     678.54782     -8849.1508     -6608.8996    
     14000   0.83898592     588.87972     -8347.3604     -7787.3657    
     15000   0.85905348     538.69707     -7657.4885     -8773.5655    
     16000   0.89282971     506.36757     -5599.13       -9664.8479    
     17000   0.93542249     476.60065     -3485.4528     -10420.929    
     18000   0.98056294     467.30194     -1149.9996     -11027.929    
     19000   1.0232792      461.46271      668.89509     -11581.21     
     20000   1.0607193      442.17313      2764.2298     -12069.378    
Loop time of 83.6912 on 12 procs for 10000 steps with 3162 atoms

Performance: 0.103 ns/day, 232.476 hours/ns, 119.487 timesteps/s
94.5% CPU use with 12 MPI tasks x no OpenMP threads

MPI task timing breakdown:
Section |  min time  |  avg time  |  max time  |%varavg| %total
---------------------------------------------------------------
Pair    | 45.569     | 48.502     | 51.93      |  29.4 | 57.95
Bond    | 0.2119     | 0.22588    | 0.24091    |   1.6 |  0.27
Kspace  | 13.823     | 17.256     | 20.144     |  49.0 | 20.62
Neigh   | 0.048512   | 0.048653   | 0.04878    |   0.0 |  0.06
Comm    | 1.6113     | 1.646      | 1.6904     |   1.7 |  1.97
Output  | 0.0006454  | 0.00081341 | 0.0026257  |   0.0 |  0.00
Modify  | 12.385     | 14.202     | 15.75      |  35.8 | 16.97
Other   |            | 1.809      |            |       |  2.16

Nlocal:          263.5 ave         276 max         253 min
Histogram: 2 1 0 1 4 1 1 1 0 1
Nghost:        5569.25 ave        5636 max        5490 min
Histogram: 1 0 1 3 0 2 1 0 2 2
Neighs:         103251 ave      109577 max       98039 min
Histogram: 2 0 3 1 2 0 0 1 2 1

Total # of neighbors = 1239011
Ave neighs/atom = 391.84409
Ave special neighs/atom = 2.0341556
Neighbor list builds = 13
Dangerous builds = 0
timestep 0.1
run ${Ninptpre}
run 10000
PPPM initialization ...
  extracting TIP4P info from pair style
  using 12-bit tables for long-range coulomb (../kspace.cpp:342)
  G vector (1/distance) = 0.31159139
  grid = 30 30 30
  stencil order = 5
  estimated absolute RMS force accuracy = 0.0034965941
  estimated relative force accuracy = 1.0529889e-05
  using double precision KISS FFT
  3d grid and FFT values/proc = 8228 2700
Generated 0 of 15 mixed pair_coeff terms from arithmetic mixing rule
Per MPI rank memory allocation (min/avg/max) = 16.8 | 16.82 | 16.86 Mbytes
   Step        Density          Temp          Press          TotEng    
     20000   1.0607193      442.17313      2720.8136     -12069.377    
     21000   1.1378749      312.00296     -360.28117     -14899.749    
     22000   1.1431457      300.84087     -1002.0875     -15652.589    
     23000   1.1214517      301.2579      -479.15617     -15886.26     
     24000   1.1118327      295.22881     -779.75863     -16037.235    
     25000   1.1164158      295.90457      1161.3385     -16191.866    
     26000   1.1130679      294.43658      207.64905     -16352.139    
     27000   1.1005924      294.55828      605.51022     -16268.378    
     28000   1.0989778      302.086        45.085211     -16272.873    
     29000   1.1019652      291.25464      286.75894     -16333.387    
     30000   1.0949542      297.35232     -204.18753     -16251.923    
Loop time of 98.4339 on 12 procs for 10000 steps with 3162 atoms

Performance: 0.878 ns/day, 27.343 hours/ns, 101.591 timesteps/s
94.8% CPU use with 12 MPI tasks x no OpenMP threads

MPI task timing breakdown:
Section |  min time  |  avg time  |  max time  |%varavg| %total
---------------------------------------------------------------
Pair    | 56.583     | 60.622     | 64.129     |  30.1 | 61.59
Bond    | 0.21739    | 0.22821    | 0.24315    |   1.6 |  0.23
Kspace  | 14.688     | 18.212     | 22.217     |  54.7 | 18.50
Neigh   | 0.21711    | 0.21791    | 0.2186     |   0.1 |  0.22
Comm    | 1.8578     | 1.8937     | 1.9213     |   1.7 |  1.92
Output  | 0.00064416 | 0.00081659 | 0.0026614  |   0.0 |  0.00
Modify  | 13.613     | 15.422     | 16.94      |  34.4 | 15.67
Other   |            | 1.837      |            |       |  1.87

Nlocal:          263.5 ave         274 max         250 min
Histogram: 1 1 1 2 0 1 0 3 1 2
Nghost:        5651.75 ave        5699 max        5595 min
Histogram: 1 1 0 1 3 0 2 2 0 2
Neighs:         107122 ave      115156 max       99859 min
Histogram: 1 0 2 2 3 1 1 0 1 1

Total # of neighbors = 1285465
Ave neighs/atom = 406.53542
Ave special neighs/atom = 2.0341556
Neighbor list builds = 50
Dangerous builds = 0
timestep 0.2
run ${Ninptpre}
run 10000
PPPM initialization ...
  extracting TIP4P info from pair style
  using 12-bit tables for long-range coulomb (../kspace.cpp:342)
  G vector (1/distance) = 0.31234926
  grid = 30 30 30
  stencil order = 5
  estimated absolute RMS force accuracy = 0.0033882169
  estimated relative force accuracy = 1.0203515e-05
  using double precision KISS FFT
  3d grid and FFT values/proc = 8228 2700
Generated 0 of 15 mixed pair_coeff terms from arithmetic mixing rule
Per MPI rank memory allocation (min/avg/max) = 16.8 | 16.83 | 16.86 Mbytes
   Step        Density          Temp          Press          TotEng    
     30000   1.0949542      297.35232      723.73317     -16251.923    
     31000   1.0908518      300.10113     -333.80556     -16258.676    
     32000   1.0892408      304.35022      92.062592     -16250.612    
     33000   1.0937817      303.67615     -10.56331      -16358.613    
     34000   1.08903        297.73861     -1215.6254     -16363.887    
     35000   1.0820809      301.88714     -719.54196     -16308.608    
     36000   1.0774114      304.64013     -1257.4332     -16375.909    
     37000   1.0833048      296.77757     -604.07626     -16508.172    
     38000   1.0912205      304.23949     -587.12682     -16414.61     
     39000   1.0892359      299.03038     -41.847212     -16424.781    
     40000   1.0855298      297.64893     -23.501353     -16444.143    
Loop time of 99.1153 on 12 procs for 10000 steps with 3162 atoms

Performance: 1.743 ns/day, 13.766 hours/ns, 100.893 timesteps/s
94.5% CPU use with 12 MPI tasks x no OpenMP threads

MPI task timing breakdown:
Section |  min time  |  avg time  |  max time  |%varavg| %total
---------------------------------------------------------------
Pair    | 54.086     | 60.668     | 64.16      |  36.9 | 61.21
Bond    | 0.21414    | 0.22819    | 0.24615    |   1.7 |  0.23
Kspace  | 15.348     | 18.833     | 25.364     |  65.8 | 19.00
Neigh   | 0.39799    | 0.39908    | 0.40003    |   0.1 |  0.40
Comm    | 1.7913     | 1.8188     | 1.8528     |   1.4 |  1.84
Output  | 0.00065922 | 0.00082826 | 0.0026502  |   0.0 |  0.00
Modify  | 13.512     | 15.327     | 16.877     |  34.5 | 15.46
Other   |            | 1.841      |            |       |  1.86

Nlocal:          263.5 ave         279 max         249 min
Histogram: 1 0 1 2 2 1 3 1 0 1
Nghost:           5631 ave        5673 max        5576 min
Histogram: 1 1 1 1 2 1 1 0 1 3
Neighs:         106735 ave      122405 max       94381 min
Histogram: 1 1 1 2 3 1 2 0 0 1

Total # of neighbors = 1280819
Ave neighs/atom = 405.0661
Ave special neighs/atom = 2.0341556
Neighbor list builds = 93
Dangerous builds = 0
timestep 0.5
run ${Ninptpre}
run 10000
PPPM initialization ...
  extracting TIP4P info from pair style
  using 12-bit tables for long-range coulomb (../kspace.cpp:342)
  G vector (1/distance) = 0.31214329
  grid = 30 30 30
  stencil order = 5
  estimated absolute RMS force accuracy = 0.0034173619
  estimated relative force accuracy = 1.0291284e-05
  using double precision KISS FFT
  3d grid and FFT values/proc = 8228 2700
Generated 0 of 15 mixed pair_coeff terms from arithmetic mixing rule
Per MPI rank memory allocation (min/avg/max) = 16.8 | 16.83 | 16.86 Mbytes
   Step        Density          Temp          Press          TotEng    
     40000   1.0855298      297.64893     -83.559618     -16444.144    
     41000   1.0784514      296.39164     -986.21489     -16400.003    
     42000   1.0973767      295.6312       524.39722     -16425.096    
     43000   1.0786376      301.49597     -882.97734     -16359.231    
     44000   1.0903465      295.53007     -282.28429     -16395.116    
     45000   1.0934154      293.20384      211.39949     -16522.035    
     46000   1.0821584      303.43259     -701.12191     -16443.979    
     47000   1.0839717      298.36732     -741.96582     -16530.652    
     48000   1.0877516      291.61781      242.6624      -16469.964    
     49000   1.0775824      309.81614     -426.10591     -16404.553    
     50000   1.0843293      298.58496     -477.46502     -16475.744    
Loop time of 101.216 on 12 procs for 10000 steps with 3162 atoms

Performance: 4.268 ns/day, 5.623 hours/ns, 98.798 timesteps/s
94.1% CPU use with 12 MPI tasks x no OpenMP threads

MPI task timing breakdown:
Section |  min time  |  avg time  |  max time  |%varavg| %total
---------------------------------------------------------------
Pair    | 57.318     | 61.168     | 65.912     |  36.4 | 60.43
Bond    | 0.21646    | 0.22828    | 0.24057    |   1.6 |  0.23
Kspace  | 14.957     | 19.7       | 23.543     |  63.9 | 19.46
Neigh   | 1.0129     | 1.0156     | 1.0178     |   0.2 |  1.00
Comm    | 1.8435     | 1.8711     | 1.9023     |   1.4 |  1.85
Output  | 0.00064359 | 0.00081676 | 0.0026728  |   0.0 |  0.00
Modify  | 13.569     | 15.389     | 16.927     |  34.4 | 15.20
Other   |            | 1.843      |            |       |  1.82

Nlocal:          263.5 ave         277 max         238 min
Histogram: 1 0 0 0 0 5 1 1 1 3
Nghost:        5592.83 ave        5621 max        5546 min
Histogram: 1 1 1 1 1 0 1 0 2 4
Neighs:         106138 ave      118453 max       99264 min
Histogram: 1 4 1 2 2 0 0 0 0 2

Total # of neighbors = 1273650
Ave neighs/atom = 402.79886
Ave special neighs/atom = 2.0341556
Neighbor list builds = 235
Dangerous builds = 0
reset_timestep 0

# continuing the initialization with the final value of timestep
unfix integrate
fix integrate all rigid/npt/small molecule temp ${Temp} ${Temp} 100.0 iso ${Pres} ${Pres} 1000.0
fix integrate all rigid/npt/small molecule temp 298.15 ${Temp} 100.0 iso ${Pres} ${Pres} 1000.0
fix integrate all rigid/npt/small molecule temp 298.15 298.15 100.0 iso ${Pres} ${Pres} 1000.0
fix integrate all rigid/npt/small molecule temp 298.15 298.15 100.0 iso 1 ${Pres} 1000.0
fix integrate all rigid/npt/small molecule temp 298.15 298.15 100.0 iso 1 1 1000.0
  create bodies CPU = 0.000 seconds
  1054 rigid bodies with 3162 atoms
  1.4901671 = max distance from body owner to body atom

timestep ${tstep}
timestep 1
run ${Ninpt}
run 10000000
PPPM initialization ...
  extracting TIP4P info from pair style
  using 12-bit tables for long-range coulomb (../kspace.cpp:342)
  G vector (1/distance) = 0.31211691
  grid = 30 30 30
  stencil order = 5
  estimated absolute RMS force accuracy = 0.0034211111
  estimated relative force accuracy = 1.0302574e-05
  using double precision KISS FFT
  3d grid and FFT values/proc = 8228 2700
Generated 0 of 15 mixed pair_coeff terms from arithmetic mixing rule
Per MPI rank memory allocation (min/avg/max) = 16.8 | 16.83 | 16.86 Mbytes
   Step        Density          Temp          Press          TotEng    
         0   1.0843293      298.58496      2123.1959     -16475.744    
      1000   1.0853445      300.17946      432.00567     -16512.635    
      2000   1.0767127      303.88697      93.453762     -16463.932    
      3000   1.0749679      297.59523     -480.09096     -16489.478    
      4000   1.0843885      296.69764     -421.38707     -16544.285    
      5000   1.0733985      303.79709      277.88521     -16272.553    
      6000   1.087882       299.61643     -157.889       -16434.235    
      7000   1.0912436      295.12379      269.42622     -16478.054    
      8000   1.082999       298.27973     -441.53257     -16462.281    
      9000   1.0977118      294.88873      1074.7339     -16479.512    
     10000   1.0778868      299.06711     -725.60099     -16412.251    
     11000   1.0808542      296.69279      358.49283     -16421.796    
     12000   1.0670474      288.36653      370.89254     -16475.073    
     13000   1.0905169      303.21142      955.44222     -16405.495    
     14000   1.0776557      296.78937     -380.11301     -16478.128    
     15000   1.0938361      302.34784      856.44792     -16391.361    
     16000   1.0992154      309.68286      977.75551     -16435.373    
     17000   1.0835616      296.84581      292.50616     -16539.173    
     18000   1.0814358      308.21103     -34.045179     -16468.613    
     19000   1.0798444      298.74641      1144.4073     -16423.019    
     20000   1.0884187      296.03762      161.01372     -16477.708    
     21000   1.0756411      299.44673     -815.80493     -16452.517    
     22000   1.0799153      310.96272      169.48163     -16511.826    
     23000   1.0722933      296.88171     -167.63873     -16486.866    
     24000   1.076928       293.27096      352.18016     -16526.609    
     25000   1.0752899      288.65321     -492.99764     -16576.658    
     26000   1.0856939      297.97362     -575.74554     -16485.022    
     27000   1.0766674      293.03147      502.1717      -16521.002    
     28000   1.0721767      300.94328     -700.22849     -16501.541    
     29000   1.0837182      287.06959      216.87602     -16634.354    
     30000   1.0796738      296.00074      455.40481     -16594.984    
     31000   1.0795749      295.39453     -87.213167     -16498.818    
     32000   1.0851679      296.02756     -190.76995     -16569.773    
     33000   1.0841976      286.24521      198.45403     -16621.442    
     34000   1.0898619      291.11245     -576.34549     -16564.12     
     35000   1.0975516      298.52396     -387.00766     -16386.781    
     36000   1.0821479      300.05815      148.72578     -16483.81     
     37000   1.0852229      297.02038      433.40601     -16529.993    
     38000   1.0834916      288.7513       515.41711     -16628.005    
     39000   1.0858585      301.57133      406.32903     -16432.011    
     40000   1.0809752      300.58409      240.29519     -16441.428    
     41000   1.0834361      298.21434     -722.34287     -16457.83     
     42000   1.0789153      304.02013      40.67996      -16511.173    
     43000   1.0754987      298.49515      345.76882     -16461.596    
     44000   1.07452        298.16471      481.57418     -16514.259    
     45000   1.0821009      301.36664     -435.5857      -16478.242    
     46000   1.0827456      293.83601      1027.9698     -16555.882    
     47000   1.0656772      299.96778     -358.12703     -16572.262    
     48000   1.0826327      296.43601      624.82243     -16564.34     
     49000   1.0742216      294.70717     -533.08543     -16593.024    
     50000   1.0741508      287.9364      -232.45946     -16634.638    
     51000   1.0737176      302.67576     -306.53384     -16568.598    
     52000   1.073044       304.19174     -2.477773      -16473.9      
     53000   1.0676355      298.55484      41.770968     -16512.117    
     54000   1.076164       297.24763     -213.92457     -16509.749    
     55000   1.0670299      293.22641     -282.77071     -16541.007    
     56000   1.0712764      301.16206     -140.85325     -16494.052    
     57000   1.0778463      289.63228     -543.81354     -16588.046    
     58000   1.0650616      288.73648     -1281.0729     -16611.602    
     59000   1.0763475      290.5284      -110.96209     -16567.232    
     60000   1.081254       294.67565      343.17992     -16531.815    
     61000   1.0753477      298.80285     -497.80607     -16554.032    
     62000   1.072742       307.67176     -270.76466     -16507.987    
     63000   1.071559       298.90994     -233.48004     -16545.797    
     64000   1.078012       286.61181      322.4676      -16667.164    
     65000   1.0749442      295.045        164.1876      -16572.996    
     66000   1.0757834      293.81359      991.0338      -16537.929    
     67000   1.0681858      295.653        22.66614      -16577.513    
     68000   1.0737959      296.23572     -545.76842     -16631.319    
     69000   1.0817255      303.0316      -29.716621     -16575.166    
     70000   1.0780156      301.11154     -411.07012     -16509.338    
     71000   1.0817198      298.68689     -306.09864     -16510.247    
     72000   1.0667858      305.07884     -313.34224     -16549.805    
     73000   1.0844251      296.56702      231.43099     -16650.149    
     74000   1.0746051      300.37955     -437.23306     -16496.203    
     75000   1.0735958      298.36412     -554.97914     -16543.968    
     76000   1.0878579      299.88419      190.05964     -16543.955    
     77000   1.0667481      300.12946     -779.23483     -16534.176    
     78000   1.0833519      304.92543      370.78499     -16536.063    
     79000   1.0731833      304.53467      475.77619     -16485.137    
     80000   1.0855312      292.15004      182.14287     -16582.719    
     81000   1.0936706      288.38881     -159.57304     -16748.875    
     82000   1.0764913      298.96124      56.805969     -16600.969    
     83000   1.0611165      300.41624     -646.32007     -16529.957    
     84000   1.0730991      297.66194      393.23078     -16596.14     
     85000   1.0630706      300.52283     -331.96793     -16606.821    
     86000   1.0649637      301.05213     -585.97232     -16487.199    
     87000   1.0775924      289.57685      320.04678     -16604.779    
     88000   1.0707773      289.7113      -416.75659     -16654.451    
     89000   1.0894086      303.30736      1085.2562     -16538.564    
     90000   1.0748526      299.9714      -687.12234     -16464.535    
     91000   1.0855617      286.94952      310.13803     -16616.379    
     92000   1.0741232      300.18324     -385.16491     -16571.334    
     93000   1.0809722      305.95354      189.68376     -16544.412    
     94000   1.0684528      302.03673     -230.00379     -16432.288    
     95000   1.0973849      300.38391      987.4324      -16552.579    
     96000   1.080878       303.4281      -148.47864     -16592.276    
     97000   1.0870365      301.36676      309.52798     -16543.495    
     98000   1.0885257      297.30966     -181.8687      -16652.796    
     99000   1.0785984      297.96071     -159.39903     -16477.99     
    100000   1.0879065      301.75246     -752.15336     -16538.854    
    101000   1.0836106      299.932       -239.99303     -16551.348    
    102000   1.070913       300.91886     -608.04658     -16479.457    
    103000   1.0631185      290.6956      -670.10061     -16563.143    
    104000   1.085886       294.76353     -105.93231     -16590.756    
    105000   1.0786558      301.03307      217.95724     -16474.668    
    106000   1.0806474      299.89018      468.82551     -16566.772    
    107000   1.0828881      308.49156      183.86376     -16427.904    
    108000   1.0803132      288.81161      191.42732     -16540.116    
    109000   1.0779215      297.32939     -72.093473     -16538.934    
    110000   1.0804159      294.3776       694.17045     -16599.069    
    111000   1.0795184      297.89943      200.27014     -16514.27     
    112000   1.0766486      298.30962      189.82236     -16443.265    
    113000   1.0832405      293.69081     -162.50883     -16600.73     
    114000   1.0796281      303.25761     -119.84919     -16492.962    
    115000   1.084449       301.95178     -54.927733     -16486.414    
    116000   1.0827843      292.30294      126.55557     -16621.84     
    117000   1.0797137      298.08578      376.80484     -16619.892    
    118000   1.0771444      299.76995     -76.996351     -16551.455    
    119000   1.084773       301.6083       517.09092     -16498.986    
    120000   1.0748674      293.47648     -1218.691      -16569.149    
    121000   1.0770741      296.95222     -1222.3172     -16594.28     
    122000   1.0809079      294.13235      143.89254     -16634.045    
    123000   1.0777839      305.35258     -350.92366     -16496.234    
    124000   1.0811681      291.74488      194.95982     -16530.435    
    125000   1.0740614      297.49464      287.48017     -16527.324    
    126000   1.0817295      304.96152      531.38533     -16461.968    
    127000   1.0701653      295.51547     -1497.0908     -16612.023    
    128000   1.0772566      307.26595      580.0014      -16558.142    
    129000   1.0625493      294.51872     -725.62007     -16644.801    
    130000   1.0741218      289.27788      568.65763     -16597.171    
    131000   1.0780394      299.27186      22.184765     -16538.795    
    132000   1.0831604      284.26953      87.653221     -16595.483    
    133000   1.0671335      301.72838     -51.001157     -16481.264    
    134000   1.0724746      302.48258     -200.86739     -16465.326    
    135000   1.07727        304.25603      77.313783     -16440.045    
    136000   1.0734618      305.10287     -478.69874     -16392.762    
    137000   1.0844228      293.98032      553.79127     -16641.722    
    138000   1.064176       291.84844     -1030.8164     -16488.994    
    139000   1.0829861      289.82598      173.05358     -16564.862    
    140000   1.0633507      302.49226      74.444572     -16444.65     
    141000   1.0678619      300.99667      212.76904     -16476.886    
    142000   1.0715635      297.46871     -390.26849     -16476.039    
    143000   1.0893552      294.12277      832.68142     -16551.769    
    144000   1.0737171      296.86513      686.81651     -16574.654    
    145000   1.0658433      298.17321      224.25735     -16509.758    
    146000   1.0755814      297.89352      879.59102     -16448.562    
    147000   1.0795998      306.15575     -55.627579     -16415.384    
    148000   1.0766376      296.88187     -885.59659     -16547.347    
    149000   1.0712142      296.23797     -1044.6825     -16504.258    
    150000   1.0806945      301.21913      304.09438     -16462.1      
    151000   1.0675016      294.77173     -394.4335      -16485.725    
    152000   1.0956986      293.2882       407.38945     -16597.64     
    153000   1.0793488      303.41209      345.20548     -16511.359    
    154000   1.0682785      293.44121      74.841355     -16559.425    
    155000   1.0866977      304.87489      511.20717     -16505.887    
    156000   1.0776168      298.67138      77.758286     -16532.875    
    157000   1.0704975      299.77536      365.39405     -16569.158    
    158000   1.0877582      293.73688      591.78701     -16550.06     
    159000   1.0768713      292.29487      107.99547     -16635.174    
    160000   1.0779842      307.37872      332.27696     -16436.78     
    161000   1.0770526      297.85981     -1145.2293     -16585.11     
    162000   1.0807052      304.75644     -286.00875     -16417.802    
    163000   1.0735216      295.43481      532.26681     -16460.967    
    164000   1.0672363      301.80411     -241.18383     -16461.492    
    165000   1.0725586      296.69924     -770.07539     -16532.484    
    166000   1.0841197      304.59368      208.58523     -16607.302    
    167000   1.0856972      297.38319      460.2123      -16441.748    
    168000   1.0795395      304.6354      -34.560973     -16496.115    
    169000   1.0824404      301.67697      625.23502     -16523.261    
    170000   1.0624375      300.93023     -61.503493     -16471.453    
    171000   1.087135       293.72904      922.05242     -16551.67     
    172000   1.0579281      301.14328     -537.36806     -16418.279    
    173000   1.0811515      290.81201      137.56012     -16608.651    
    174000   1.0808228      302.7398      -476.37775     -16469.889    
    175000   1.0874841      299.07212      138.40115     -16599.116    
    176000   1.076494       293.44812      175.12714     -16573.045    
    177000   1.0792638      295.94757     -793.29393     -16510.019    
    178000   1.0790707      297.39375      253.33094     -16539.739    
    179000   1.0739772      307.11265     -13.366282     -16454.31     
    180000   1.0781296      296.61352      1084.7871     -16618.881    
    181000   1.0832226      291.48552     -318.1021      -16529.957    
    182000   1.088341       292.36283     -701.13445     -16647.171    
    183000   1.0812756      316.54036     -151.86167     -16405.904    
    184000   1.0805142      298.14919      866.97525     -16536.951    
    185000   1.076406       295.4546      -752.30012     -16573.285    
    186000   1.0851257      296.68819      696.69924     -16515.599    
    187000   1.0697654      295.96172      235.13343     -16575.818    
    188000   1.0675523      301.08563     -232.66789     -16515.347    
    189000   1.0731455      294.59768     -415.85702     -16659.074    
    190000   1.0745361      303.80564     -380.00796     -16481.557    
    191000   1.0869395      302.47112      797.75674     -16530.398    
    192000   1.0767922      295.84286     -201.64207     -16519.532    
    193000   1.0834317      299.70645     -122.39941     -16544.646    
    194000   1.0765509      297.74924     -588.29168     -16498.639    
    195000   1.0786068      298.77775      180.90812     -16536.373    
    196000   1.0768373      302.20586     -64.606763     -16436.408    
    197000   1.0759359      293.29199      770.87746     -16556.207    
    198000   1.0890982      303.45812      122.48827     -16540.044    
    199000   1.0789869      300.12308     -843.07782     -16533.237    
    200000   1.0778646      303.86546      587.45174     -16400.897    
    201000   1.0806843      301.66555     -196.00681     -16456.595    
    202000   1.0644845      290.04948     -43.619152     -16529.074    
    203000   1.0898663      295.44501      1153.9357     -16491.837    
    204000   1.0820287      300.23786      220.2789      -16515.445    
    205000   1.0958637      304.6359      -473.40706     -16539.22     
    206000   1.073836       291.74713     -268.33899     -16513.199    
    207000   1.0857207      296.46881      185.59273     -16530.395    
    208000   1.0663649      302.78508     -53.17765      -16470.752    
    209000   1.084771       299.15602      478.88382     -16474.813    
    210000   1.0754029      291.46153     -70.149345     -16555.587    
    211000   1.087564       304.10546      1271.8631     -16481.932    
    212000   1.0820272      298.11779     -358.09112     -16664.226    
    213000   1.0685037      290.46604     -572.72696     -16507.122    
    214000   1.0823738      302.89453     -461.33898     -16522.326    
    215000   1.0918401      300.3591       244.8221      -16552.987    
    216000   1.0695055      301.27444     -152.75073     -16577.561    
    217000   1.0778198      306.53853      200.21569     -16545.295    
    218000   1.082432       302.26017      319.58225     -16469.157    
    219000   1.0769625      289.59352     -596.67147     -16576.213    
    220000   1.0817665      301.73536      25.343257     -16498.593    
    221000   1.0721813      291.66776     -387.7069      -16626.177    
    222000   1.0749542      288.42361     -323.05973     -16548.238    
    223000   1.0861274      286.67416     -641.60823     -16591.718    
    224000   1.0796778      291.79188     -196.25098     -16617.309    
    225000   1.0792064      288.09575      388.75097     -16567.364    
    226000   1.0655007      303.07541     -456.36013     -16498.955    
    227000   1.0792792      293.63977      1033.788      -16622.201    
    228000   1.0838865      298.60299      277.614       -16504.281    
    229000   1.0742478      304.28828     -594.22461     -16504.682    
    230000   1.0814579      296.76403     -180.87278     -16580.61     
    231000   1.0856541      291.88822      568.40374     -16635.801    
    232000   1.0709603      289.31975     -649.69973     -16581.744    
    233000   1.0801886      301.81951     -284.53027     -16473.455    
    234000   1.079129       300.79725      608.31126     -16472.944    
    235000   1.0745891      300.10334      692.91217     -16475.821    
    236000   1.0925197      289.92996     -241.20995     -16612.479    
    237000   1.0747289      287.72925     -427.60784     -16508.438    
    238000   1.0926369      302.33883      470.01168     -16495.802    
    239000   1.0709021      294.89136     -278.28532     -16552.568    
    240000   1.0732486      299.739        143.40876     -16488.921    
    241000   1.0656454      304.02587     -498.3652      -16492.282    
    242000   1.0727855      306.1595      -698.88744     -16463.585    
    243000   1.0787416      292.11826     -184.35726     -16506.689    
    244000   1.091518       292.18388      174.87233     -16588.032    
    245000   1.0673984      295.60975     -768.52817     -16515.544    
    246000   1.0726917      288.6056       144.23228     -16584.899    
    247000   1.0880385      305.6907       613.51865     -16457.849    
    248000   1.0837505      294.44584     -255.59659     -16572.211    
    249000   1.0807409      299.28716     -130.58048     -16562.639    
    250000   1.0806329      301.45514      333.27221     -16456.701    
    251000   1.0772328      295.48736     -177.76723     -16506.986    
    252000   1.0761592      302.14477      171.79416     -16519.373    
    253000   1.0916252      289.57079      355.18113     -16608.112    
    254000   1.0785797      294.41015      514.77584     -16565.552    
    255000   1.0785456      297.173       -60.026723     -16580.749    
    256000   1.0735812      292.69901      5.9332048     -16487.814    
    257000   1.0835494      295.92156      0.82915145    -16681.934    
    258000   1.0783285      299.85635      696.24652     -16558.261    
    259000   1.0808336      298.89546      356.48125     -16525.81     
    260000   1.094257       298.30827      602.59267     -16547.697    
    261000   1.0756984      305.49757      266.24937     -16427.4      
    262000   1.0936875      300.64567      1283.4458     -16529.033    
    263000   1.0657628      287.52778     -1102.9413     -16642.866    
    264000   1.080632       293.26285     -158.35091     -16619.231    
    265000   1.0888324      290.3147       481.11058     -16583.958    
    266000   1.0818581      301.22546     -227.09429     -16526.506    
    267000   1.0819727      302.00901     -315.14297     -16455.314    
    268000   1.0929362      292.38757     -841.32291     -16637.322    
    269000   1.0960061      299.06312      671.93735     -16561.027    
    270000   1.0869588      308.47117      1060.6699     -16539.21     
    271000   1.0808653      297.76119      74.43303      -16598.804    
    272000   1.0772637      295.3827       140.58311     -16578.841    
    273000   1.0722319      291.83657      138.43926     -16526.104    
    274000   1.0902609      300.9058       578.28156     -16548.567    
    275000   1.0769822      285.11892     -111.75381     -16654.349    
    276000   1.081872       297.60913      153.9053      -16549.007    
    277000   1.0819336      295.73362      797.45833     -16514.586    
    278000   1.0691735      297.56612     -580.09826     -16437.785    
    279000   1.0930762      298.49501      706.37619     -16595.43     
    280000   1.0880835      304.94582      340.46029     -16482.925    
    281000   1.0716256      296.16714      120.4655      -16544.437    
    282000   1.0814773      293.816        413.30928     -16603.501    
    283000   1.0636318      299.37376      196.73132     -16566.944    
    284000   1.0747512      288.86782      538.70533     -16665.135    
    285000   1.0802801      292.17004      437.21247     -16598.501    
    286000   1.081787       292.42532     -600.27813     -16580.986    
    287000   1.0881449      299.87811      431.86507     -16612.989    
    288000   1.0785917      302.1125       1.8910693     -16553.536    
    289000   1.0731887      300.2086      -155.31657     -16564.974    
    290000   1.089426       296.93051      298.59824     -16594.061    
    291000   1.0807501      299.07769      525.90651     -16430.778    
    292000   1.0914739      314.36767      23.025247     -16470.836    
    293000   1.0847475      294.46096     -15.122528     -16501.874    
    294000   1.0811729      298.55959      244.95422     -16526.717    
    295000   1.0802463      297.18505      52.942063     -16504.126    
    296000   1.0704675      295.90484      442.7961      -16564.815    
    297000   1.0636412      301.75536     -468.43095     -16457.932    
    298000   1.0790679      286.10223      153.4157      -16590.59     
    299000   1.0698675      294.41029     -722.50519     -16632.801    
    300000   1.0886915      293.83829      130.92996     -16559.591    
    301000   1.0739357      299.48401     -562.29267     -16531.076    
    302000   1.089486       297.52147      642.05296     -16559.917    
    303000   1.0675744      291.67489     -392.32915     -16555.677    
    304000   1.0790319      286.30199      125.59087     -16671.294    
    305000   1.0606637      297.32259     -400.95573     -16503.08     
    306000   1.082138       297.83652      321.1241      -16499.481    
    307000   1.0872901      300.56017     -229.71142     -16557.633    
    308000   1.0900831      290.0502       157.68246     -16577.372    
    309000   1.0757148      303.41151     -583.31252     -16493.177    
    310000   1.0917422      310.13244      200.61352     -16509.37     
    311000   1.0950472      288.22802      87.680977     -16735.147    
    312000   1.0858093      300.39253      467.80178     -16507.32     
    313000   1.0817411      290.81356      4.5118411     -16556.557    
    314000   1.0817594      297.60513      292.11394     -16544.06     
    315000   1.070555       309.908       -191.55044     -16426.096    
    316000   1.0819645      293.36421      687.33527     -16617.704    
    317000   1.090472       294.12751      492.36597     -16634.708    
    318000   1.0752049      294.34586     -1208.9334     -16488.476    
    319000   1.098642       293.80742      906.19889     -16570.973    
    320000   1.06992        294.58172     -427.25872     -16558.275    
    321000   1.0832039      302.5825       93.535941     -16553.622    
    322000   1.0689793      294.73396     -585.58336     -16466.566    
    323000   1.0789393      290.43693      5.3389596     -16639.495    
    324000   1.0657255      300.29124     -362.83393     -16545.229    
    325000   1.078934       295.73213      229.51349     -16495.019    
    326000   1.0731816      296.53535     -300.02425     -16507.476    
    327000   1.0811013      294.35461      344.17806     -16548.456    
    328000   1.0943169      299.69874     -70.873448     -16503.011    
    329000   1.0693987      299.97086     -367.99938     -16413.478    
    330000   1.0932393      301.08919      870.71689     -16637.969    
    331000   1.0779887      288.79782     -154.29961     -16575.785    
    332000   1.0876767      297.9993      -201.35249     -16505.682    
    333000   1.0900379      297.05232     -201.82588     -16565.819    
    334000   1.0899759      299.26968     -428.98343     -16564.654    
    335000   1.0730854      313.21417      93.853516     -16352.205    
    336000   1.0638875      301.01099     -584.98606     -16533.844    
    337000   1.071452       305.1729       216.79187     -16430.975    
    338000   1.080108       294.84742     -89.441479     -16634.984    
    339000   1.0794811      310.79234      451.10395     -16469.75     
    340000   1.0730039      297.27765     -157.39709     -16583.787    
    341000   1.0879105      296.98354      631.70841     -16544.354    
    342000   1.0837417      300.85128     -86.781969     -16520.413    
    343000   1.0844649      304.30196      281.75748     -16403.593    
    344000   1.0611116      296.28346     -552.82046     -16524.883    
    345000   1.0798463      295.85073      537.20623     -16534.098    
    346000   1.087328       302.38589      205.98807     -16553.089    
    347000   1.0785342      306.03642     -139.75444     -16483.391    
    348000   1.0784338      298.08262      47.920979     -16453.245    
    349000   1.0761743      290.35995      127.41609     -16609.219    
    350000   1.0823195      298.27271     -35.385116     -16481.223    
    351000   1.0887125      294.75886      245.06161     -16654.927    
    352000   1.0694052      308.6954      -696.06753     -16346.198    
    353000   1.0825174      291.31389      1010.7446     -16530.859    
    354000   1.071235       289.56413     -767.50751     -16573.799    
    355000   1.0824137      296.82693      954.64436     -16576.832    
    356000   1.0795889      290.78279      490.07801     -16616.714    
    357000   1.07632        290.89043      219.76474     -16641.632    
    358000   1.0819186      289.14126     -167.75413     -16627.927    
    359000   1.0890478      291.99009      10.979204     -16603.321    
    360000   1.0794963      304.75624      734.05687     -16494.732    
    361000   1.0765117      304.70656      293.69472     -16442.796    
    362000   1.0735145      296.37969      15.56535      -16463.14     
    363000   1.0743119      296.4389      -291.27556     -16434.029    
    364000   1.0880117      302.16935      440.84601     -16503.484    
    365000   1.0748267      302.60544      467.49414     -16367.942    
    366000   1.070244       296.33379     -158.06031     -16458.137    
    367000   1.0860017      291.95986      487.54884     -16583.394    
    368000   1.0727919      296.44089     -193.12083     -16514.369    
    369000   1.0781301      300.52323      349.01726     -16392.424    
    370000   1.0858702      301.78269     -176.32094     -16439.06     
    371000   1.0950597      299.76278      504.06303     -16562.875    
    372000   1.0837112      304.58806     -77.390827     -16517.229    
    373000   1.0732472      307.43976     -414.1406      -16524.782    
    374000   1.0838114      303.05119      196.5752      -16496.745    
    375000   1.0712389      299.99457     -683.25287     -16537.959    
    376000   1.0810888      291.34688     -586.02763     -16636.594    
    377000   1.0928611      297.86202      1010.0359     -16596.346    
    378000   1.0743252      299.78882     -79.204553     -16393.337    
    379000   1.0939197      290.97717      218.31156     -16588.783    
    380000   1.0789367      300.65612     -801.5896      -16547        
    381000   1.0815594      288.41281     -522.24759     -16627.017    
    382000   1.0675687      297.69812      907.69086     -16517.685    
    383000   1.0815731      306.64984      251.08391     -16526.68     
    384000   1.0880121      297.01833      318.97338     -16606.676    
    385000   1.0835994      290.67381     -81.317966     -16675.308    
    386000   1.0722167      295.2421      -309.14922     -16536.503    
    387000   1.0746278      291.05862     -176.37639     -16557.979    
    388000   1.0742861      307.85166      274.0317      -16434.522    
    389000   1.0768973      288.48563     -123.79938     -16603.348    
    390000   1.0839537      301.74498     -97.763199     -16562.331    
    391000   1.0729124      300.80005     -267.21815     -16620.358    
    392000   1.0745305      289.54384     -517.30313     -16532.965    
    393000   1.0852383      291.38643     -345.06454     -16530.627    
    394000   1.082804       287.12383     -287.82136     -16617.365    
    395000   1.0822861      293.92632      114.57825     -16523.934    
    396000   1.0966593      290.69521      735.18408     -16596.328    
    397000   1.0849927      299.16556      234.44474     -16449.652    
    398000   1.0911282      297.66028      50.832117     -16566.57     
    399000   1.0802785      304.92865     -172.34493     -16435.157    
    400000   1.070614       291.85132     -1134.0514     -16572.825    
    401000   1.0899406      290.98056      350.56295     -16571.096    
    402000   1.0659231      301.43438     -599.02553     -16492.238    
    403000   1.079235       294.81158     -376.91512     -16615.76     
    404000   1.075661       301.67972     -274.31532     -16505.326    
    405000   1.0861944      302.34508      484.37412     -16585.517    
    406000   1.0853631      302.97153     -932.52186     -16571.065    
    407000   1.0786756      289.04329      429.90565     -16517.449    
    408000   1.0663002      288.20974      435.34917     -16541.1      
    409000   1.0536619      305.1971       336.3517      -16456.435    
    410000   1.0783688      297.0302       901.3813      -16514.919    
    411000   1.0730038      302.53668     -420.16037     -16480.197    
    412000   1.082387       293.40571      488.23881     -16592.206    
    413000   1.0730439      293.02407     -3.3991717     -16544.702    
    414000   1.0800581      300.96466      136.86155     -16503.943    
    415000   1.084603       292.48677      444.20371     -16492.155    
    416000   1.0727387      299.33192     -799.8971      -16506.417    
    417000   1.0745061      300.92598     -282.17808     -16469.861    
    418000   1.0670488      295.28126      115.45971     -16518.951    
    419000   1.0808766      295.06259      90.812249     -16520.57     
    420000   1.0735108      290.69547     -11.207761     -16540.706    
    421000   1.0766725      300.85749      87.178544     -16535.073    
    422000   1.0708473      297.31545      604.39212     -16508.245    
    423000   1.0723821      292.05576      936.32459     -16670.137    
    424000   1.0711791      307.40788     -297.21889     -16433.435    
    425000   1.0755165      286.24006     -16.316166     -16665.517    
    426000   1.0704443      304.46251     -38.90964      -16448.081    
    427000   1.081344       292.76146     -4.6935152     -16584.179    
    428000   1.0850313      302.97724      186.08657     -16544.525    
    429000   1.0651754      292.97561     -1001.3656     -16511.999    
    430000   1.0924776      302.2389       549.80063     -16536.08     
    431000   1.0768548      304.33062     -498.08164     -16367.753    
    432000   1.0799917      293.83246      319.73326     -16530.561    
    433000   1.0624815      306.66641     -984.14291     -16398.356    
    434000   1.0768757      289.21578      413.18541     -16628.238    
    435000   1.0719812      297.10552      118.79259     -16477.517    
    436000   1.069325       294.61569     -483.90779     -16580.705    
    437000   1.0658001      299.03671      16.986485     -16510.145    
    438000   1.0777356      300.17102      427.68057     -16534.723    
    439000   1.0830203      297.07977     -647.75951     -16539.197    
    440000   1.0869223      304.50178     -421.8828      -16528.355    
    441000   1.0705184      298.39907     -506.47001     -16581.579    
    442000   1.0648283      294.77864      500.51602     -16577.004    
    443000   1.063553       292.33458     -216.06812     -16566.159    
    444000   1.0786879      294.19396     -289.36579     -16577.211    
    445000   1.0762109      294.26728      782.58819     -16462.139    
    446000   1.0748751      299.77302     -441.12842     -16472.287    
    447000   1.0792802      304.44843     -28.334436     -16491.709    
    448000   1.0868991      300.43052      1051.6438     -16517.528    
    449000   1.0822734      290.16567      640.52564     -16537.875    
    450000   1.0796632      294.45362     -90.580709     -16551.837    
    451000   1.0751157      303.89874      200.53614     -16509.005    
    452000   1.0720031      312.18241     -293.60981     -16450.704    
    453000   1.0768602      293.60099      386.97216     -16602.782    
    454000   1.0659759      308.51755     -159.5415      -16487.771    
    455000   1.0781227      300.881        40.954037     -16537.823    
    456000   1.0799484      300.36825     -177.76539     -16487.502    
    457000   1.0790352      303.51006     -557.33091     -16462.171    
    458000   1.0830403      295.03665      804.55645     -16558.124    
    459000   1.0736071      296.82987     -288.69769     -16595.101    
    460000   1.0894965      293.38005     -229.98956     -16525.905    
    461000   1.0691838      292.47553     -20.211193     -16585.624    
    462000   1.0900376      307.4565       951.91331     -16474.76     
    463000   1.0733574      304.80634     -170.45816     -16390.21     
    464000   1.0882365      299.44682      585.14861     -16602.019    
    465000   1.0683442      290.34208     -265.22212     -16699.648    
    466000   1.0803139      288.67129      287.37733     -16658.414    
    467000   1.0918671      299.9591       55.19505      -16609.223    
    468000   1.0843475      298.419       -357.74645     -16543.411    
    469000   1.0814879      294.7222       10.637895     -16591.636    
    470000   1.0913627      303.13435      113.01402     -16523.466    
    471000   1.0889045      293.96182     -1092.1806     -16611.714    
    472000   1.0836517      304.89491     -7.5688816     -16486.435    
    473000   1.0744791      297.60208      49.24509      -16579.193    
    474000   1.0714544      290.16786     -403.56007     -16701.401    
    475000   1.0802233      300.62694     -307.97093     -16616.968    
    476000   1.0720508      295.94871      744.11512     -16604.277    
    477000   1.0800958      303.15323      891.04451     -16548.067    
    478000   1.0784768      295.50805     -310.06326     -16547.127    
    479000   1.0769621      293.026        51.372186     -16646.307    
    480000   1.0738205      296.96846     -610.11356     -16607.869    
    481000   1.0722657      300.284       -397.20558     -16483.316    
    482000   1.0760496      293.94472     -41.751919     -16602.417    
    483000   1.0683017      302.19678      37.228749     -16533.855    
    484000   1.0809346      295.26327     -149.97115     -16646.154    
    485000   1.073019       294.64155     -340.51709     -16487.516    
    486000   1.1013911      303.67241      988.51861     -16578.716    
    487000   1.0719692      295.07033     -491.60219     -16402.449    
    488000   1.0945053      294.76724      383.2325      -16417.37     
    489000   1.0799219      306.78599     -608.08176     -16450.184    
    490000   1.0749822      295.59648     -288.07858     -16588.73     
    491000   1.0808841      299.66731     -229.05847     -16563.456    
    492000   1.0802717      306.42935      968.49259     -16441.147    
    493000   1.076351       304.20875     -53.257154     -16483.024    
    494000   1.0871445      300.59508      574.47423     -16558.514    
    495000   1.0763824      291.86516      180.26775     -16596.42     
    496000   1.0740965      298.30518      7.8175037     -16501.38     
    497000   1.0767167      303.15122     -386.72667     -16550.651    
    498000   1.0862969      304.55921      1453.2682     -16494.957    
    499000   1.0733035      305.56317      44.676946     -16516.982    
    500000   1.0869258      299.75143      536.39515     -16549.694    
    501000   1.079846       296.25394     -162.0608      -16487.395    
    502000   1.0746013      309.27146     -595.73489     -16465.352    
    503000   1.0851928      298.90245      643.64102     -16460.304    
    504000   1.0791721      289.96074      234.69585     -16639.805    
    505000   1.0773854      287.75993     -554.13818     -16638.633    
    506000   1.0770117      302.07341     -932.35336     -16610.1      
    507000   1.0771278      298.06066      187.64544     -16494.285    
    508000   1.0820029      296.29788     -726.18421     -16524.194    
    509000   1.0980665      298.60464      753.49902     -16566.418    
    510000   1.0863001      294.36084     -310.15343     -16506.87     
    511000   1.0864769      304.22658      737.02841     -16526.89     
    512000   1.0950274      289.44275     -222.38733     -16632.79     
    513000   1.0902568      288.51874      437.88471     -16612.661    
    514000   1.084443       298.15336     -16.222318     -16579.12     
    515000   1.0929725      301.02833     -8.6585055     -16674.035    
    516000   1.0814858      301.60585      109.45686     -16539.977    
    517000   1.0901517      303.75543      436.35535     -16502.555    
    518000   1.0752         295.30681     -272.67182     -16536.989    
    519000   1.0962552      297.75505      860.75949     -16567.711    
    520000   1.0747262      297.72131     -149.5155      -16487.129    
    521000   1.0722536      292.19639     -529.86052     -16570.194    
    522000   1.0783456      295.43568      680.93322     -16617.213    
    523000   1.0786557      304.30493     -233.31749     -16422.346    
    524000   1.0792289      294.54469      53.986934     -16592.518    
    525000   1.086965       306.23844      582.82148     -16456.674    
    526000   1.0840952      287.58772     -330.77255     -16657.543    
    527000   1.0875117      293.5675      -94.38824      -16686.628    
    528000   1.0816558      296.2689      -579.63026     -16596.608    
    529000   1.07418        301.685       -201.02255     -16516.849    
    530000   1.0765923      301.0625      -0.32130481    -16582.217    
    531000   1.0779794      300.41296     -456.94257     -16564.79     
    532000   1.0793265      303.32517      269.01498     -16541.415    
    533000   1.0879241      290.75445     -354.2147      -16627.218    
    534000   1.0774122      300.23242     -237.02043     -16450.162    
    535000   1.0858971      298.35787      208.64926     -16603.272    
    536000   1.0704681      306.39662     -396.63964     -16489.072    
    537000   1.0753991      301.13284      542.36241     -16597.294    
    538000   1.0642565      295.04468     -1078.8475     -16547.441    
    539000   1.0782479      300.89304     -199.4536      -16535.254    
    540000   1.0770319      304.98465     -907.01123     -16473.857    
    541000   1.08597        301.9496       67.242625     -16534.24     
    542000   1.0792954      301.25392     -723.34002     -16442.769    
    543000   1.0741332      305.39328      69.132373     -16438.359    
    544000   1.0885022      303.0099       338.63015     -16505.262    
    545000   1.0721099      293.50995     -698.78843     -16435.055    
    546000   1.0707929      301.48802      109.27142     -16531.823    
    547000   1.0710309      293.28946     -122.33976     -16616.725    
    548000   1.0661842      289.75672     -94.662597     -16477.89     
    549000   1.0722948      294.87623      406.46993     -16501.714    
    550000   1.0777198      303.34441      503.25797     -16476.298    
    551000   1.0793155      294.41354      912.01356     -16530.797    
    552000   1.075724       302.68017     -199.59402     -16538.026    
    553000   1.0807566      301.68915     -87.395658     -16522.242    
    554000   1.0803031      299.37566      451.17782     -16521.005    
    555000   1.0818453      297.24051     -280.4614      -16587.797    
    556000   1.0757467      298.95237     -169.83668     -16510.339    
    557000   1.0699848      300.50901      101.0404      -16452.133    
    558000   1.0786105      299.56952      116.0489      -16530.647    
    559000   1.0636824      299.70757     -142.74875     -16587.537    
    560000   1.0849811      305.59982      902.56124     -16482.728    
    561000   1.0729853      289.47755     -1098.0948     -16554.168    
    562000   1.0808174      307.53831     -358.26052     -16429.392    
    563000   1.0871432      293.4025       973.03033     -16501.011    
    564000   1.0790054      294.36463     -65.5582       -16548.768    
    565000   1.0763467      300.08616      376.32307     -16503.841    
    566000   1.0655723      291.96204      97.487684     -16586.873    
    567000   1.0781689      300.09762     -382.12244     -16613.503    
    568000   1.0701922      298.61121     -789.06818     -16554.387    
    569000   1.0855482      296.52508     -369.32561     -16526.674    
    570000   1.072536       298.42977     -682.1875      -16558.982    
    571000   1.0781135      292.96528      82.300707     -16642.818    
    572000   1.0698565      299.80848      262.92227     -16481.928    
    573000   1.0795724      295.25921     -155.44793     -16618.563    
    574000   1.0720782      301.04402     -127.55575     -16486.818    
    575000   1.0857786      297.31599      1163.2745     -16660.87     
    576000   1.0724204      297.24847     -368.94866     -16563.941    
    577000   1.0868113      292.31407      452.58541     -16542.827    
    578000   1.0842075      288.97096     -428.58671     -16603.488    
    579000   1.0783457      292.34292     -62.289009     -16542.966    
    580000   1.0867909      300.31788      649.78612     -16545.215    
    581000   1.0776582      298.44804     -496.39139     -16537.412    
    582000   1.0764198      290.4311       16.061504     -16554.932    
    583000   1.0857653      300.20265      702.46059     -16529.515    
    584000   1.0670374      292.36582     -286.38048     -16559.529    
    585000   1.0675043      309.05189     -278.91669     -16444.68     
    586000   1.0834613      296.09172      749.91256     -16575.793    
    587000   1.0741671      296.33512      106.12909     -16538.932    
    588000   1.0872805      295.84013      653.62535     -16603.902    
    589000   1.0739991      293.34659     -569.32232     -16591.333    
    590000   1.0889949      290.13428     -182.79548     -16722.916    
    591000   1.0728418      299.66233     -384.21011     -16562.423    
    592000   1.0759579      300.95701      53.301891     -16573.741    
    593000   1.0841623      300.71488     -154.44495     -16483.451    
    594000   1.0903026      294.86934     -150.80184     -16590.156    
    595000   1.091386       299.59743      1446.9275     -16466.585    
    596000   1.0795813      294.82305     -242.8076      -16575.466    
    597000   1.0912366      290.12033      415.23663     -16630.546    
    598000   1.0702248      311.11011     -981.14682     -16510.918    
    599000   1.0908419      304.13844      754.21137     -16494.844    
    600000   1.0683267      288.75616     -577.52455     -16484.39     
    601000   1.0845633      306.18593      811.28412     -16469.961    
    602000   1.072752       294.93937     -1023.3171     -16558.155    
    603000   1.0803323      298.6992      -24.697163     -16499.426    
    604000   1.0643127      297.41954     -1567.4646     -16557.804    
    605000   1.0832415      292.18335      280.88273     -16474.555    
    606000   1.0749332      298.34604     -484.21053     -16398.499    
    607000   1.0991657      296.35864      188.01505     -16608.021    
    608000   1.0742369      305.11944     -20.487424     -16420.27     
    609000   1.0648652      297.51337     -305.07881     -16509.25     
    610000   1.08423        292.6556      -351.21474     -16624.389    
    611000   1.0855052      294.66141     -250.76647     -16626.716    
    612000   1.0868569      294.98674      124.25467     -16528.521    
    613000   1.0849937      294.49192      58.498775     -16559.564    
    614000   1.0840609      298.40149     -254.79181     -16596.306    
    615000   1.0869112      294.63952      104.22364     -16585.345    
    616000   1.0815848      296.15287     -102.3957      -16563.947    
    617000   1.0750058      308.38161     -310.50534     -16507.816    
    618000   1.0810992      304.14923     -332.95611     -16471.107    
    619000   1.0811146      292.89641      707.96623     -16548.235    
    620000   1.0832125      293.49905      512.82071     -16637.482    
    621000   1.0866923      306.90115     -580.30224     -16513.046    
    622000   1.0819973      296.72794     -263.04403     -16555.393    
    623000   1.0813718      285.86754      126.07053     -16657.346    
    624000   1.077954       304.84041     -656.16065     -16445.974    
    625000   1.0765194      284.80131     -121.57086     -16525.258    
    626000   1.0888925      299.37127      1151.7751     -16462.569    
    627000   1.0812199      298.42422     -393.73313     -16505.777    
    628000   1.0859737      301.11876      57.660587     -16554.857    
    629000   1.0750596      303.27982      146.93676     -16472.34     
    630000   1.0791055      302.1466      -115.89058     -16582.275    
    631000   1.0762704      305.48985     -127.81234     -16512.971    
    632000   1.0762648      288.8512       324.03769     -16585.403    
    633000   1.0771928      288.33521      472.81738     -16583.073    
    634000   1.0854644      296.68187      374.43801     -16539.126    
    635000   1.0785365      300.47099     -21.763412     -16518.969    
    636000   1.0707741      292.36077     -966.67462     -16563.179    
    637000   1.0830291      299.78518     -189.70954     -16499.411    
    638000   1.0749385      304.72443     -652.626       -16415.142    
    639000   1.0809662      306.26663     -394.51397     -16436.993    
    640000   1.0780136      306.46258      90.930524     -16427.977    
    641000   1.0711276      313.15082     -20.007465     -16425.021    
    642000   1.0883338      299.01286      175.59622     -16625.131    
    643000   1.0679486      295.77539     -484.13199     -16540.301    
    644000   1.0742828      292.45738      389.58193     -16558.973    
    645000   1.063843       295.07057     -297.14311     -16524.201    
    646000   1.0820121      299.09978      720.67336     -16594.899    
    647000   1.0695795      292.01192     -615.37415     -16652.104    
    648000   1.079324       294.44176      389.1353      -16633.27     
    649000   1.0801488      309.03723     -562.07302     -16534.093    
    650000   1.0829543      296.07218     -333.43053     -16534.102    
    651000   1.079595       292.2858      -420.76258     -16538.359    
    652000   1.0913992      295.29896     -120.64069     -16604.482    
    653000   1.0725631      301.55114     -195.63501     -16502.45     
    654000   1.0738796      294.53128     -818.87147     -16569.697    
    655000   1.0802537      299.91472      784.94828     -16557.593    
    656000   1.0747618      297.76769     -266.38799     -16636.454    
    657000   1.0806467      289.51384     -447.74909     -16665.279    
    658000   1.075204       296.88682     -215.46947     -16553.806    
    659000   1.085041       299.57066     -41.637966     -16507.668    
    660000   1.0841595      297.52799     -162.29867     -16442.613    
    661000   1.0846528      294.51898      448.31895     -16586.343    
    662000   1.0770534      302.15612     -459.06078     -16468.775    
    663000   1.0713893      304.47688      174.55323     -16466.713    
    664000   1.076945       290.77078     -517.08072     -16578.778    
    665000   1.0765247      297.30888     -382.16455     -16613.906    
    666000   1.0829618      304.74619      820.22598     -16535.171    
    667000   1.0807816      296.47042     -413.3095      -16579.253    
    668000   1.0853353      290.88788      344.61871     -16648.406    
    669000   1.078535       299.06832     -59.971105     -16491.67     
    670000   1.0753612      302.83185     -62.771219     -16451.908    
    671000   1.081902       291.82236      773.85447     -16545.891    
    672000   1.0744382      300.89947     -583.76269     -16560.056    
    673000   1.06682        297.47317      71.171613     -16591.62     
    674000   1.0698641      292.74518      364.51211     -16586.535    
    675000   1.0643586      290.36228      373.90428     -16606.924    
    676000   1.0809203      298.08506      23.701982     -16562.06     
    677000   1.068663       293.47921     -392.76008     -16556.409    
    678000   1.0851139      305.89626      319.9269      -16412.959    
    679000   1.0778162      296.30659     -620.66624     -16509.519    
    680000   1.077782       301.20736     -108.35098     -16533.579    
    681000   1.0904252      298.91246     -21.291059     -16601.573    
    682000   1.071379       300.5881      -488.21066     -16500.549    
    683000   1.0747665      297.44651      570.212       -16572.135    
    684000   1.073116       304.04237      639.26512     -16573.301    
    685000   1.0672318      303.25138     -177.08246     -16563.869    
    686000   1.0760007      304.65262     -76.242838     -16581.682    
    687000   1.0753311      290.29714     -532.84358     -16623.747    
    688000   1.0801258      306.66008      63.672274     -16550.717    
    689000   1.0835317      303.52605      117.84789     -16462.493    
    690000   1.0832621      300.71593      291.41247     -16507.216    
    691000   1.0853614      290.55127     -38.984187     -16605.066    
    692000   1.0842909      298.42228     -569.4547      -16525.928    
    693000   1.069648       290.94183      103.27471     -16517.417    
    694000   1.0775177      294.36179     -595.96557     -16489.956    
    695000   1.0943317      289.35934     -0.75749567    -16573.751    
    696000   1.0790143      304.75248     -621.5152      -16474.509    
    697000   1.0757008      292.00899      78.888047     -16548.62     
    698000   1.0574854      292.36132     -589.17863     -16599.815    
    699000   1.082304       301.51062      1108.1076     -16508.263    
    700000   1.0506946      292.38972     -889.42785     -16496.766    
    701000   1.0737066      295.21015      69.208111     -16502.762    
    702000   1.0670145      304.25836     -276.06853     -16505.252    
    703000   1.0766165      289.97738     -104.29495     -16551.151    
    704000   1.0759159      299.61855      173.55344     -16521.217    
    705000   1.0713227      299.17766      37.593732     -16499.984    
    706000   1.0828598      291.19299      996.53347     -16635.113    
    707000   1.0671308      291.82995     -411.91026     -16464.694    
    708000   1.0694276      304.20312     -120.85565     -16543.867    
    709000   1.07334        302.07906     -171.88961     -16514.569    
    710000   1.0846242      300.12257      458.67776     -16526.442    
    711000   1.0734577      303.46198      241.19678     -16595.133    
    712000   1.0714396      290.51632     -942.4826      -16629.235    
    713000   1.0744798      297.27958      213.72423     -16488.981    
    714000   1.0615454      299.17351     -378.77715     -16538.207    
    715000   1.0779455      292.37203     -409.3073      -16665.995    
    716000   1.0872748      289.76378     -587.31096     -16647.369    
    717000   1.0780846      305.21003     -307.49503     -16478.533    
    718000   1.0777344      301.54785      390.03017     -16611.769    
    719000   1.0872697      294.00553      250.5933      -16641.032    
    720000   1.0666608      293.64222     -828.47008     -16649.263    
    721000   1.0781052      296.55494      3.9314306     -16569.924    
    722000   1.0826776      303.38285      1238.2346     -16560.117    
    723000   1.0857357      308.21499      751.43328     -16513.024    
    724000   1.0792469      300.19455     -382.40995     -16504.75     
    725000   1.0910178      294.61912      292.02356     -16521.851    
    726000   1.0784983      301.70634      32.5593       -16517.475    
    727000   1.0801511      299.77881      102.92816     -16518.882    
    728000   1.0700002      296.05004     -247.17035     -16591.051    
    729000   1.0823344      294.85997      197.46237     -16481.771    
    730000   1.0861428      303.73109      83.265466     -16546.142    
    731000   1.0842432      295.96463     -144.78451     -16616.999    
    732000   1.0836006      299.16938      84.677708     -16550.069    
    733000   1.0776286      295.2776      -180.4184      -16508.564    
    734000   1.0898589      297.70549     -368.07378     -16572.122    
    735000   1.0859297      294.69761      115.76637     -16541.111    
    736000   1.0795362      298.85502     -29.034059     -16540.248    
    737000   1.0898745      297.13112      605.35549     -16514.182    
    738000   1.0880745      292.93254     -87.559198     -16569.334    
    739000   1.076458       302.00808      258.36787     -16497.286    
    740000   1.0906098      298.16686     -124.86817     -16534.69     
    741000   1.0734397      308.92992      82.106288     -16465.1      
    742000   1.0752912      304.33276      613.84461     -16489.648    
    743000   1.0747254      297.04857      94.283705     -16537.945    
    744000   1.0744035      308.67958     -81.44692      -16464.594    
    745000   1.0694115      297.47211     -407.94035     -16525.496    
    746000   1.0939442      296.03999      422.18286     -16534.841    
    747000   1.0836308      293.57993      425.34837     -16614.825    
    748000   1.0837215      303.50902     -11.195896     -16535.776    
    749000   1.0761146      294.16803      110.18838     -16589.217    
    750000   1.0628097      293.66173     -111.85595     -16637.418    
    751000   1.0673536      298.10153     -4.7482638     -16565.202    
    752000   1.0823009      303.29893      657.99173     -16527.455    
    753000   1.080078       300.05979      19.724172     -16593.165    
    754000   1.0724679      301.4534      -228.0153      -16573.527    
    755000   1.086594       296.93453      631.25998     -16538.157    
    756000   1.0846031      301.27152      169.99945     -16469.575    
    757000   1.0808562      291.72663     -294.29236     -16622.179    
    758000   1.0730063      297.13195     -341.47808     -16454.861    
    759000   1.0781607      295.06004     -196.23077     -16509.428    
    760000   1.0617513      300.66283     -920.50542     -16554.458    
    761000   1.0796467      296.20355      165.71016     -16525.032    
    762000   1.0640745      300.2329      -411.31533     -16462.684    
    763000   1.0720793      303.98985      259.85605     -16470.502    
    764000   1.0913073      307.26999      1350.8643     -16500.894    
    765000   1.0680133      300.2654      -687.11947     -16484.934    
    766000   1.0891447      279.83089      471.49662     -16652.914    
    767000   1.0701185      294.92002     -41.414087     -16526.575    
    768000   1.0847448      301.46593      802.68189     -16605.046    
    769000   1.0660167      299.00306     -503.39637     -16516.504    
    770000   1.0770671      292.15189     -107.52917     -16546.499    
    771000   1.0616035      297.10462     -43.863027     -16580.552    
    772000   1.0762439      302.04876      581.0027      -16483.445    
    773000   1.0662407      305.38166     -112.49897     -16454.159    
    774000   1.0738648      296.00762      27.433586     -16481.276    
    775000   1.0742323      289.20697     -760.50252     -16577.184    
    776000   1.0877371      300.85602      1243.5843     -16503.278    
    777000   1.0661095      288.56274     -572.75331     -16516.454    
    778000   1.0751854      297.11701     -85.139813     -16528.777    
    779000   1.071854       298.65445     -273.90115     -16539.992    
    780000   1.0798316      291.85716      788.84589     -16625.813    
    781000   1.0749073      300.17443     -15.08933      -16520.908    
    782000   1.0724552      292.42522     -1087.5055     -16638.456    
    783000   1.0842638      298.88112      1323.5219     -16540.42     
    784000   1.076645       293.27466      302.14981     -16469.769    
    785000   1.0872681      304.50912     -254.58757     -16582.656    
    786000   1.0835438      299.38924     -249.46263     -16489.128    
    787000   1.0802985      298.30958      117.58234     -16621.663    
    788000   1.0757188      289.28324      28.958413     -16564.918    
    789000   1.0797152      299.74668      231.76152     -16607.225    
    790000   1.0726761      297.99667     -21.8734       -16566.707    
    791000   1.0739607      303.73167      37.171506     -16502.545    
    792000   1.0777113      292.69691      245.21496     -16567.209    
    793000   1.0734612      291.10438      201.12005     -16563.18     
    794000   1.0773026      304.71637     -235.91979     -16507.493    
    795000   1.0839964      304.04575     -5.1937793     -16555.671    
    796000   1.0866009      305.34821      839.7411      -16523.555    
    797000   1.060749       298.14633     -451.20316     -16432.129    
    798000   1.0748814      305.21626      425.18241     -16579.535    
    799000   1.0683883      300.62004     -65.872696     -16415.49     
    800000   1.0806665      301.01766     -117.67635     -16521.684    
    801000   1.0821975      304.47721      1.8537276     -16536.726    
[...]
   6689000   1.0404823      306.92908      690.82461     -18414.342    
   6690000   1.0342656      293.21387     -654.28552     -18482.237    
   6691000   1.0339083      290.77456     -783.99454     -18484.543    
   6692000   1.0410304      298.75168     -429.54681     -18448.736    
   6693000   1.0372249      302.59046     -1291.4165     -18398.935    
   6694000   1.0311332      307.98482     -347.82657     -18338.411    
   6695000   1.044001       288.41704      1173.41       -18525.304    
   6696000   1.0448807      298.46373      1834.6608     -18428.029    
   6697000   1.0345368      300.79453      192.56255     -18425.489    
   6698000   1.0380284      290.33492     -301.54034     -18487.175    
   6699000   1.0483429      295.28242      1856.9229     -18472.605    
   6700000   1.0376642      290.06421      682.09241     -18506.745    
   6701000   1.031629       291.38821      35.722502     -18458.488    
   6702000   1.0443374      287.73478      686.51708     -18529.691    
   6703000   1.0436845      296.88383      197.10169     -18456.019    
   6704000   1.0276846      297.42244     -1048.0996     -18439.772    
   6705000   1.0470752      299.20833      1309.4286     -18489.411    
   6706000   1.0392061      295.52583      396.32582     -18420.095    
   6707000   1.0395011      304.72661      450.79134     -18381.328    
   6708000   1.0426105      308.92013      397.96451     -18382.401    
   6709000   1.0355415      293.07241     -249.03943     -18451.606    
   6710000   1.0364619      295.14335     -60.788707     -18454.656    
   6711000   1.0477262      296.14136      1431.6187     -18474.897    
   6712000   1.0355375      308.72016      1798.217      -18378.63     
   6713000   1.0401755      301.79735      781.51932     -18432.094    
   6714000   1.0417035      298.98218     -159.60296     -18461.965    
   6715000   1.0395547      286.95189      1346.17       -18520.861    
   6716000   1.0408767      292.46041      364.53771     -18503.716    
   6717000   1.0400468      293.65753      62.770262     -18461.318    
   6718000   1.0347782      281.32413     -592.85907     -18571.27     
   6719000   1.0359633      305.14995     -420.39827     -18413.61     
   6720000   1.039785       300.83673      53.685963     -18443.523    
   6721000   1.0391219      307.86507      1046.4035     -18371.974    
   6722000   1.0345642      293.51205     -398.23002     -18446.819    
   6723000   1.0418195      287.30342      1175.4052     -18516.183    
   6724000   1.0421573      296.09772      1291.0696     -18447.99     
   6725000   1.035762       303.50851      97.081876     -18424.18     
   6726000   1.0423292      296.2394      -803.42429     -18489.722    
   6727000   1.0323678      286.19267     -831.99684     -18509.328    
   6728000   1.0409067      300.88357      183.61049     -18417.129    
   6729000   1.0411064      293.135       -136.42174     -18472.438    
   6730000   1.0276224      296.94551     -1739.2109     -18407.491    
   6731000   1.0371202      295.38421     -969.59278     -18436.524    
   6732000   1.0455947      303.64066      869.46285     -18401.199    
   6733000   1.0290677      303.19172     -1560.6702     -18383.229    
   6734000   1.0345058      292.14546     -624.35145     -18453.264    
   6735000   1.0498555      300.32598      1104.6316     -18445.521    
   6736000   1.0297661      305.21876     -764.33188     -18388.774    
   6737000   1.0385316      303.1933       27.827385     -18415.192    
   6738000   1.0479521      320.26977      126.11199     -18294.503    
   6739000   1.0280055      298.31699     -127.73848     -18408.549    
   6740000   1.0383881      290.85857     -747.67315     -18475.468    
   6741000   1.0500523      310.96894      1944.2827     -18376.048    
   6742000   1.0286627      298.03186     -180.12096     -18429.576    
   6743000   1.0448495      300.66359      1429.6323     -18416.54     
   6744000   1.0401318      293.20677     -299.33632     -18481.078    
   6745000   1.0235857      300.64526     -2489.6471     -18397.637    
   6746000   1.048229       286.47859      861.09622     -18512.027    
   6747000   1.0418548      304.17775     -148.04363     -18393.918    
   6748000   1.0249472      296.28747     -2748.9955     -18421.589    
   6749000   1.0436538      290.10336      243.48833     -18499.68     
   6750000   1.0405929      302.13295     -468.09986     -18414.904    
   6751000   1.0299736      286.31115     -809.13368     -18478.564    
   6752000   1.0417575      307.14616     -248.18026     -18374.906    
   6753000   1.0426713      288.16569     -287.30769     -18482.469    
   6754000   1.0333415      272.58597     -1075.1074     -18591.083    
   6755000   1.0445125      298.50255      1136.9732     -18444.793    
   6756000   1.0407944      284.32257     -15.875942     -18534.002    
   6757000   1.0262263      300.45059     -613.49518     -18424.753    
   6758000   1.0458969      294.38461      1061.3033     -18467.666    
   6759000   1.0407333      313.88901      250.86097     -18378.501    
   6760000   1.0324475      296.70827     -1349.0443     -18445.357    
   6761000   1.0415147      306.4868       499.16253     -18392.104    
   6762000   1.0431972      298.03078      486.88621     -18460.665    
   6763000   1.0352923      311.43609     -155.91358     -18369.772    
   6764000   1.043721       308.1313       337.52731     -18407.58     
   6765000   1.034915       292.68157     -607.13639     -18465.869    
   6766000   1.0290258      307.79521     -1758.5794     -18351.646    
   6767000   1.0498733      283.32495      1183.7497     -18577.512    
   6768000   1.0368451      303.34965      250.93825     -18390.014    
   6769000   1.0329244      294.59505     -438.41288     -18440.545    
   6770000   1.0459393      302.81039      1706.128      -18442.655    
   6771000   1.0408387      307.1916       189.37327     -18384.643    
   6772000   1.0336112      308.53841     -2225.7491     -18350.18     
   6773000   1.041793       316.64082      738.59423     -18310.903    
   6774000   1.038309       301.13209      811.76539     -18406.082    
   6775000   1.0336665      298.60146     -1193.3101     -18430.182    
   6776000   1.0482322      301.64736      185.32913     -18456.337    
   6777000   1.033026       307.13419     -1298.2147     -18371.983    
   6778000   1.0362944      301.80009      1471.9817     -18383.543    
   6779000   1.0451187      289.22493     -17.014278     -18486.233    
   6780000   1.0401593      281.54145     -246.18338     -18533.831    
   6781000   1.0298416      306.4392      -310.92473     -18368.088    
   6782000   1.0480764      286.14872      1066.6504     -18526.869    
   6783000   1.0363386      295.93153     -826.71839     -18466.268    
   6784000   1.0316586      293.25397     -557.41457     -18480.631    
   6785000   1.0473299      300.19116      1958.445      -18440.456    
   6786000   1.0354269      296.04194     -533.03781     -18484.793    
   6787000   1.0338813      287.37379      505.80064     -18529.671    
   6788000   1.0519134      288.64555      1912.9461     -18529.391    
   6789000   1.0308458      286.28481     -521.93848     -18517.189    
   6790000   1.035643       300.7548      -328.12023     -18443.608    
   6791000   1.0488636      299.28906      733.11333     -18431.006    
   6792000   1.0330332      303.82359     -143.14073     -18399.554    
   6793000   1.0367188      298.08014      68.015507     -18444.727    
   6794000   1.0444275      295.12188      609.82207     -18450.107    
   6795000   1.0326056      283.87774     -889.19345     -18535.863    
   6796000   1.0363782      308.54744     -1511.308      -18405.818    
   6797000   1.0443358      281.82927     -889.12816     -18572.288    
   6798000   1.0332547      298.99438     -598.83456     -18420.742    
   6799000   1.0386894      297.43255     -76.094678     -18463.966    
   6800000   1.043301       296.81596      777.45112     -18480.349    
   6801000   1.0329103      301.09777     -869.08461     -18444.881    
   6802000   1.0361743      294.29543     -1014.577      -18457.253    
   6803000   1.0465765      295.61712      975.76712     -18484.049    
   6804000   1.0364015      290.39179     -736.71971     -18523.576    
   6805000   1.0361412      290.6966      -169.76607     -18473.529    
   6806000   1.0503388      307.73959      2035.0203     -18412.467    
   6807000   1.0344773      306.23463      229.16829     -18387.955    
   6808000   1.0362448      306.25643     -412.9776      -18389.964    
   6809000   1.0483478      288.783       -62.432767     -18535.508    
   6810000   1.027476       302.42148     -965.32401     -18414.206    
   6811000   1.0338626      286.17039     -637.96042     -18498.029    
   6812000   1.0524216      303.88587      1254.9073     -18424.546    
   6813000   1.0301937      302.2992      -731.17306     -18389.024    
   6814000   1.0308028      315.44502     -1533.5859     -18315.596    
   6815000   1.0485464      291.71762      396.51614     -18524.549    
   6816000   1.0339359      301.71921     -461.59473     -18376.646    
   6817000   1.0395683      307.0842       933.75555     -18378.86     
   6818000   1.044476       286.60183      496.7826      -18523.836    
   6819000   1.0347542      283.11418     -345.16047     -18555.187    
   6820000   1.0307105      293.25001     -1639.7662     -18448.714    
   6821000   1.0450806      279.27568     -527.82537     -18578.651    
   6822000   1.0428893      303.2553       611.59899     -18437.201    
   6823000   1.0286154      296.99073     -731.9568      -18410.742    
   6824000   1.0441992      300.68875      97.20961      -18461.408    
   6825000   1.0415301      295.73698     -1228.3927     -18458.906    
   6826000   1.0244493      305.42392     -1528.6424     -18359.494    
   6827000   1.0474373      298.17565      2073.722      -18474.718    
   6828000   1.0432439      286.95963      177.99836     -18558.18     
   6829000   1.0348862      298.26028     -356.52452     -18443.212    
   6830000   1.0412002      300.39601      641.07765     -18439.551    
   6831000   1.040519       309.1488       75.024509     -18395.766    
   6832000   1.0348689      280.40842     -1146.2125     -18591.776    
   6833000   1.0378953      296.60769      458.64524     -18444.04     
   6834000   1.0433408      301.39194      1565.495      -18433.802    
   6835000   1.048897       295.28558      1568.1646     -18491.548    
   6836000   1.0341225      280.78592     -336.66824     -18575.982    
   6837000   1.0388135      300.94734     -1304.9305     -18427.703    
   6838000   1.049097       291.68255     -399.4595      -18513.517    
   6839000   1.0288562      276.65735     -3203.8154     -18582.511    
   6840000   1.0381183      296.2863      -724.04362     -18443.648    
   6841000   1.0494895      311.27897      1008.6931     -18385.785    
   6842000   1.0328269      292.72082     -147.42312     -18459.598    
   6843000   1.0389355      301.6303       21.32509      -18381.838    
   6844000   1.0481273      295.12475      766.55        -18495.591    
   6845000   1.035847       274.51341     -715.52734     -18598.99     
   6846000   1.0405593      290.61107      312.32013     -18473.47     
   6847000   1.0456449      296.58314      890.5934      -18435.048    
   6848000   1.0380187      304.76251      458.99985     -18393.967    
   6849000   1.0352855      311.85377      710.09917     -18345.699    
   6850000   1.0433655      311.21863      800.33577     -18359.896    
   6851000   1.0459975      310.90003      84.000344     -18365.267    
   6852000   1.036172       296.75888     -667.88732     -18452.781    
   6853000   1.0420669      287.35796      21.739772     -18511.497    
   6854000   1.0381164      290.95971     -857.3587      -18506.189    
   6855000   1.040387       296.59604     -579.82259     -18463.347    
   6856000   1.0435809      305.69545     -489.30846     -18408.034    
   6857000   1.035688       302.43335      551.42113     -18388.989    
   6858000   1.0381337      317.30551     -422.82615     -18323.579    
   6859000   1.0435734      289.99245     -1143.2001     -18514.444    
   6860000   1.0360226      311.96976     -968.73781     -18322.432    
   6861000   1.0377817      299.81255      261.31519     -18388.427    
   6862000   1.0444355      294.44556      1676.1341     -18476.256    
   6863000   1.0373535      298.33902      525.36032     -18449.219    
   6864000   1.0334487      284.57494     -323.54518     -18506.924    
   6865000   1.0432658      296.10112      289.40317     -18441.614    
   6866000   1.0408116      292.53463      749.92137     -18491.981    
   6867000   1.036783       290.02493     -148.95477     -18501.883    
   6868000   1.0407107      305.42259     -255.43964     -18397.452    
   6869000   1.0364539      302.89957     -827.84934     -18426.665    
   6870000   1.0359559      292.98519     -925.19109     -18473.655    
   6871000   1.042708       295.16115      1260.5825     -18478.013    
   6872000   1.033417       296.88082     -80.073028     -18450.399    
   6873000   1.0468417      288.31415      1806.8695     -18497.677    
   6874000   1.0435557      305.2511       550.12598     -18404.913    
   6875000   1.0232933      297.33222     -2035.631      -18408.157    
   6876000   1.0442697      302.3733      -252.12347     -18422.602    
   6877000   1.0454904      294.5089       316.99851     -18452.36     
   6878000   1.0243997      312.31929     -1728.1147     -18333.517    
   6879000   1.0463417      300.3737       555.87995     -18429.929    
   6880000   1.046375       305.68207      81.973963     -18395.328    
   6881000   1.0270165      297.91076     -249.182       -18442.929    
   6882000   1.0412448      300.08979     -627.94935     -18422.229    
   6883000   1.0448978      276.0959      -1696.8981     -18592.861    
   6884000   1.0319195      289.20121     -1303.0373     -18513.747    
   6885000   1.0422684      289.9794      -306.44678     -18490.527    
   6886000   1.039816       313.14225     -40.286645     -18346.606    
   6887000   1.0345249      298.34332     -720.19125     -18406.212    
   6888000   1.0433289      294.7439       143.72564     -18448.956    
   6889000   1.043544       303.77573      754.16077     -18439.176    
   6890000   1.0367391      315.60013     -670.39443     -18328.038    
   6891000   1.0466196      296.20288      1568.8261     -18472.045    
   6892000   1.0397375      301.54099      1764.2182     -18448.996    
   6893000   1.0341416      297.84169     -111.5746      -18442.707    
   6894000   1.0476937      293.75881      724.82429     -18481.211    
   6895000   1.032595       304.15031     -130.24988     -18406.953    
   6896000   1.0351455      299.22364     -585.56603     -18419.61     
   6897000   1.0445395      301.84122     -537.05998     -18421.154    
   6898000   1.0349657      327.51355      493.50106     -18268.651    
   6899000   1.0332456      278.60073     -469.45431     -18565.699    
   6900000   1.04138        297.63822     -29.996167     -18468.163    
   6901000   1.0330981      295.28907     -1067.7736     -18437.229    
   6902000   1.0332998      295.96324     -989.79999     -18430.907    
   6903000   1.0387471      307.41582      657.31423     -18386.118    
   6904000   1.0371737      302.89122      732.52244     -18380.458    
   6905000   1.04266        288.15684     -276.82039     -18506.069    
   6906000   1.0389241      302.95606     -813.77757     -18396.782    
   6907000   1.0291232      309.98809     -1213.6494     -18336.13     
   6908000   1.0328998      296.708       -1071.5082     -18447.926    
   6909000   1.0443531      307.61084     -68.239493     -18373.815    
   6910000   1.0354065      288.24348     -239.36826     -18480.158    
   6911000   1.033672       294.29219     -570.8462      -18451.413    
   6912000   1.0403263      296.78554     -361.26348     -18435.548    
   6913000   1.0406268      293.96409      487.55165     -18470.481    
   6914000   1.035053       298.3546      -1317.9967     -18427.933    
   6915000   1.0392311      312.43283      1053.9575     -18348.639    
   6916000   1.0389987      294.16743      118.41526     -18439.368    
   6917000   1.0365444      296.74328     -134.90511     -18413.875    
   6918000   1.0381908      300.51087     -520.40208     -18428.35     
   6919000   1.0424593      290.24587     -97.414979     -18492.973    
   6920000   1.0319158      299.58561      1093.177      -18445.81     
   6921000   1.033912       293.41095     -1207.144      -18481.577    
   6922000   1.0495137      292.57371      834.57059     -18502.184    
   6923000   1.0356182      304.69697      281.49043     -18405.962    
   6924000   1.0356457      295.84192     -392.81125     -18468.693    
   6925000   1.0503617      297.55493      1172.5204     -18442.505    
   6926000   1.0284133      299.37274     -460.19691     -18372.658    
   6927000   1.0406748      302.24229      792.46483     -18398.578    
   6928000   1.0475174      303.99114      883.23534     -18375.03     
   6929000   1.0287405      309.02038     -199.22076     -18331.847    
   6930000   1.0414003      300.75028      679.38581     -18412.395    
   6931000   1.0465576      284.95266      1435.7802     -18532.851    
   6932000   1.0277867      294.46336     -1217.8235     -18433.253    
   6933000   1.0368214      294.81813     -1031.2591     -18435.544    
   6934000   1.0469184      318.67058      1232.2023     -18285.898    
   6935000   1.0337642      299.98929     -19.63879      -18411.642    
   6936000   1.0336356      312.71181      83.511924     -18298.613    
   6937000   1.0450151      294.22942      971.18669     -18483.987    
   6938000   1.0408384      301.6547      -190.74331     -18396.611    
   6939000   1.0341879      298.84867     -805.44621     -18410.772    
   6940000   1.0368288      300.70654     -423.52996     -18417.23     
   6941000   1.040003       285.71848      522.26257     -18513.068    
   6942000   1.0423578      298.08029      469.27532     -18451.057    
   6943000   1.0368787      306.11931     -963.57972     -18393.76     
   6944000   1.0435926      291.43355      1336.2617     -18503.476    
   6945000   1.0360999      298.67821      702.25722     -18403.736    
   6946000   1.0406016      283.9945       841.73964     -18531.611    
   6947000   1.0453073      313.55416      1703.2239     -18337.143    
   6948000   1.0314567      308.22833     -1197.3572     -18340.303    
   6949000   1.0392334      318.30569      285.06207     -18259.813    
   6950000   1.0463129      300.39664      1857.0703     -18442.576    
   6951000   1.0361939      292.22975      1323.5103     -18471.944    
   6952000   1.0395399      304.7572       979.36056     -18379.545    
   6953000   1.0365599      299.29024     -253.22261     -18409.733    
   6954000   1.0304016      295.9509      -1691.4941     -18425.959    
   6955000   1.0389803      291.74398     -620.32349     -18443.291    
   6956000   1.0375242      303.97635     -839.45836     -18381.786    
   6957000   1.0365105      293.59124     -52.197369     -18447.852    
   6958000   1.0390164      300.10611      994.70951     -18406.904    
   6959000   1.0333463      301.47646      224.92169     -18409.931    
   6960000   1.0367364      313.60973      1081.6051     -18338.116    
   6961000   1.0426354      289.44625      234.67322     -18497.473    
   6962000   1.0339833      287.59599      404.75606     -18483.637    
   6963000   1.0389749      283.5517       87.941602     -18516.317    
   6964000   1.0377451      291.97907      166.06296     -18474.325    
   6965000   1.0372484      286.95714     -870.87564     -18496.815    
