LAMMPS (23 Jun 2022 - Update 2)
WARNING: Using I/O redirection is unreliable with parallel runs. Better use -in switch to read input file. (../lammps.cpp:530)
Reading data file ...
  orthogonal box = (0 0 0) to (32.712215 32.712215 32.712215)
  2 by 2 by 3 MPI processor grid
  reading atoms ...
  3162 atoms
  scanning bonds ...
  4 = max bonds/atom
  scanning angles ...
  6 = max angles/atom
  reading bonds ...
  2108 bonds
  reading angles ...
  1108 angles
Finding 1-2 1-3 1-4 neighbors ...
  special bond factors lj:    0        0        0       
  special bond factors coul:  0        0        0       
     4 = max # of 1-2 neighbors
     3 = max # of 1-3 neighbors
     3 = max # of 1-4 neighbors
     4 = max # of special neighbors
  special bonds CPU = 0.003 seconds
  read_data CPU = 0.032 seconds
Setting atom values ...
  1000 settings made for charge
Setting atom values ...
  2000 settings made for charge
Setting atom values ...
  36 settings made for charge
Setting atom values ...
  36 settings made for charge
Setting atom values ...
  18 settings made for charge
Setting atom values ...
  72 settings made for charge
1000 atoms in group wat
36 atoms in group Li
36 atoms in group S
  create bodies CPU = 0.001 seconds
  1054 rigid bodies with 3162 atoms
  1.4900946 = max distance from body owner to body atom
PPPM initialization ...
  extracting TIP4P info from pair style
  using 12-bit tables for long-range coulomb (../kspace.cpp:342)
  G vector (1/distance) = 0.30890196
  grid = 30 30 30
  stencil order = 5
  estimated absolute RMS force accuracy = 0.0039074082
  estimated relative force accuracy = 1.1767044e-05
  using double precision KISS FFT
  3d grid and FFT values/proc = 8228 2700
Generated 12 of 15 mixed pair_coeff terms from arithmetic mixing rule
Neighbor list info ...
  update every 1 steps, delay 0 steps, check yes
  max neighbors/atom: 2000, page size: 100000
  master list distance cutoff = 12.3092
  ghost atom cutoff = 12.3092
  binsize = 6.1546, bins = 6 6 6
  1 neighbor lists, perpetual/occasional/extra = 1 0 0
  (1) pair lj/cut/tip4p/long, perpetual
      attributes: half, newton on
      pair build: half/bin/newton
      stencil: half/bin/3d
      bin: standard
Setting up Verlet run ...
  Unit style    : real
  Current step  : 0
  Time step     : 0.001
Per MPI rank memory allocation (min/avg/max) = 16.41 | 16.47 | 16.8 Mbytes
   Step        Density          Temp          Press          TotEng    
         0   0.94847729     300.42897     -8682186        131114.2     
      1000   0.94836382     310.67399      28841.061      131112.21    
      2000   0.94768942     341.01084      28110.647      131099.64    
      3000   0.94646917     389.68244      26870.351      131071.53    
      4000   0.94472876     453.16515      25098.364      131016.7     
      5000   0.94250482     527.07565      22809.886      130923.97    
      6000   0.93984451     609.4348       20147.083      130800.97    
      7000   0.93680249     696.07646      17467.262      130643.63    
      8000   0.9334343      782.1407       15056.139      130446.58    
      9000   0.92979168     864.87645      12657.617      130217.43    
     10000   0.92592648     939.93183      9992.4052      129952.59    
     11000   0.9218949      1004.331       7323.9345      129654.65    
     12000   0.91775292     1056.2201      5043.4281      129328.97    
     13000   0.91354954     1095.0024      3065.2658      128984.09    
     14000   0.90932775     1120.6173      1167.2769      128626.74    
     15000   0.90512787     1133.5976     -551.25083      128262.7     
     16000   0.90098607     1135.265      -1991.8788      127898.71    
     17000   0.89693275     1127.3242     -3235.9149      127540.52    
     18000   0.89299362     1111.5539     -4324.3558      127192.41    
     19000   0.88919053     1089.7294     -5239.9671      126857.56    
     20000   0.88554128     1063.511      -6004.4425      126538.33    
     21000   0.88206003     1034.3445     -6648.759       126235.92    
     22000   0.87875794     1003.4818     -7183.8057      125950.91    
     23000   0.87564348     972.01225     -7623.3572      125683.23    
     24000   0.87272278     940.86132     -7987.6058      125432.18    
     25000   0.87000009     910.79124     -8290.0158      125196.89    
     26000   0.86747817     882.40685     -8541.7582      124976.09    
     27000   0.86515856     856.15255     -8754.3376      124768.29    
     28000   0.86304189     832.31451     -8936.3054      124572.09    
     29000   0.86112813     811.02892     -9095.4929      124385.98    
     30000   0.85941681     792.28705     -9236.4868      124208.52    
     31000   0.85790717     775.94613     -9361.8664      124038.38    
     32000   0.85659826     761.75415     -9471.8262      123874.36    
     33000   0.85548899     749.36872     -9564.7372      123715.4     
     34000   0.85457811     738.42598     -9639.359       123560.64    
     35000   0.85386426     728.56232     -9693.635       123409.47    
     36000   0.8533459      719.44991     -9726.7008      123261.4     
     37000   0.85302136     710.79422     -9738.0929      123116.01    
     38000   0.85288876     702.34409     -9725.3329      122973.19    
     39000   0.85294603     693.95734     -9690.3843      122832.8     
     40000   0.85319092     685.60155     -9638.8899      122694.81    
     41000   0.85362108     677.24698     -9575.9578      122559.19    
     42000   0.85423413     668.78        -9500.4014      122425.98    
     43000   0.85502763     660.03761     -9405.625       122295.26    
     44000   0.85599896     650.92742     -9287.0507      122167.11    
     45000   0.85714517     641.53878     -9148.5054      122041.68    
     46000   0.85846307     632.07876     -9000.4932      121919.1     
     47000   0.85994937     622.8095      -8857.4906      121799.37    
     48000   0.86160098     613.88928     -8729.1817      121682.45    
     49000   0.86341507     605.31612     -8615.4978      121568.26    
     50000   0.86538916     597.00017     -8508.7217      121456.69    
Loop time of 411.54 on 12 procs for 50000 steps with 3162 atoms

Performance: 0.010 ns/day, 2286.335 hours/ns, 121.495 timesteps/s
94.4% CPU use with 12 MPI tasks x no OpenMP threads

MPI task timing breakdown:
Section |  min time  |  avg time  |  max time  |%varavg| %total
---------------------------------------------------------------
Pair    | 223.42     | 236.74     | 256.26     |  74.2 | 57.52
Bond    | 1.0776     | 1.1384     | 1.2057     |   3.7 |  0.28
Kspace  | 67.814     | 87.058     | 100.27     | 121.6 | 21.15
Neigh   | 0.025583   | 0.025643   | 0.025698   |   0.0 |  0.01
Comm    | 7.9927     | 8.1902     | 8.433      |   4.2 |  1.99
Output  | 0.0032607  | 0.0041134  | 0.013273   |   4.3 |  0.00
Modify  | 61.163     | 69.996     | 76.987     |  80.1 | 17.01
Other   |            | 8.391      |            |       |  2.04

Nlocal:          263.5 ave         272 max         253 min
Histogram: 1 0 1 3 1 1 0 2 1 2
Nghost:        4799.58 ave        4896 max        4617 min
Histogram: 3 1 0 0 0 0 0 0 1 7
Neighs:        84750.4 ave       89891 max       79677 min
Histogram: 2 0 1 2 1 2 0 2 1 1

Total # of neighbors = 1017005
Ave neighs/atom = 321.63346
Ave special neighs/atom = 2.0341556
Neighbor list builds = 7
Dangerous builds = 0
PPPM initialization ...
  extracting TIP4P info from pair style
  using 12-bit tables for long-range coulomb (../kspace.cpp:342)
  G vector (1/distance) = 0.31134653
  grid = 32 32 32
  stencil order = 5
  estimated absolute RMS force accuracy = 0.0032058353
  estimated relative force accuracy = 9.6542778e-06
  using double precision KISS FFT
  3d grid and FFT values/proc = 9522 3072
Generated 12 of 15 mixed pair_coeff terms from arithmetic mixing rule
Setting up Verlet run ...
  Unit style    : real
  Current step  : 50000
  Time step     : 0.01
Per MPI rank memory allocation (min/avg/max) = 16.51 | 16.56 | 16.9 Mbytes
   Step        Density          Temp          Press          TotEng    
     50000   0.86538916     597.00017     -2367.6147      121456.72    
     51000   0.89329622     527.66436     -6654.3791      120465.14    
     52000   0.93278691     502.14819     -4861.3067      119634.84    
     53000   0.97833359     487.13913     -2429.5989      118927.79    
     54000   1.0236676      473.28436      480.52278      118334.79    
     55000   1.0636417      461.35189      2251.7887      117830.72    
     56000   1.0959527      451.70391      3302.9883      117357.59    
     57000   1.1196655      435.06949      3859.7454      116913.01    
     58000   1.134865       422.60784      3055.3352      116481.85    
     59000   1.143517       401.89603      1856.096       116075.42    
     60000   1.1482362      381.23491      814.14301      115719.25    
     61000   1.1513175      364.79708     -168.10363      115405.29    
     62000   1.1543668      346.31483      288.34373      115146.03    
     63000   1.1569869      338.11622      270.96104      114923.17    
     64000   1.1589262      328.58186      379.26661      114733.48    
     65000   1.1601919      319.40761     -8.5481893      114566.64    
     66000   1.1614096      317.37867     -94.240882      114427.86    
     67000   1.1626414      308.82251      393.64879      114304.34    
     68000   1.1634663      310.90349     -391.03312      114191.59    
     69000   1.1648664      305.05343     -235.35678      114094.09    
     70000   1.1666192      303.35379      416.17142      114009.42    
     71000   1.1676668      301.86892      526.43745      113938.33    
     72000   1.1677419      297.74065      450.72957      113879.55    
     73000   1.1667537      307.2466       821.394        113867.37    
     74000   1.1644862      300.80395     -82.883055      113796.06    
     75000   1.1622283      295.77914     -172.35749      113708.7     
     76000   1.160359       296.49602     -349.60563      113691.01    
     77000   1.159147       303.58161     -169.01085      113685.27    
     78000   1.1581077      297.23426      445.56589      113669.48    
     79000   1.1563312      300.92365      327.96105      113671.57    
     80000   1.1540477      302.14182     -317.04463      113655.89    
     81000   1.1522191      298.79605      111.52733      113590.34    
     82000   1.150172       295.76656      595.6388       113553.06    
     83000   1.1473886      304.12439     -964.85374      113540.14    
     84000   1.1462133      294.24339     -930.8194       113485.13    
     85000   1.1466416      297.48612      344.72249      113501.12    
     86000   1.1465015      307.61799      881.93522      113546.59    
     87000   1.1448934      299.33643     -75.049011      113502.97    
     88000   1.1435209      295.72345     -567.64325      113419.77    
     89000   1.1430929      295.13925      353.55702      113387.27    
     90000   1.1421513      300.27241      165.71384      113381.17    
     91000   1.1408925      292.98052     -145.16107      113368.93    
     92000   1.1399117      297.2518      -114.62983      113381.96    
     93000   1.1387953      292.90864      1441.3589      113405.32    
     94000   1.1353876      309.20483      792.26075      113483.63    
     95000   1.1305262      302.8569      -533.46445      113468.33    
     96000   1.126412       291.5112      -388.2487       113388.45    
     97000   1.1231647      296.71225     -431.72009      113374.53    
     98000   1.120837       294.35683     -877.23759      113381.18    
     99000   1.1201697      299.67361     -1124.877       113415.58    
    100000   1.1217127      288.09376     -1145.8577      113367.65    
Loop time of 506.035 on 12 procs for 50000 steps with 3162 atoms

Performance: 0.085 ns/day, 281.130 hours/ns, 98.807 timesteps/s
95.0% CPU use with 12 MPI tasks x no OpenMP threads

MPI task timing breakdown:
Section |  min time  |  avg time  |  max time  |%varavg| %total
---------------------------------------------------------------
Pair    | 277.15     | 302.52     | 324.72     |  80.6 | 59.78
Bond    | 1.1073     | 1.1517     | 1.2618     |   4.1 |  0.23
Kspace  | 82.028     | 104.08     | 129.14     | 136.7 | 20.57
Neigh   | 0.1447     | 0.14481    | 0.14497    |   0.0 |  0.03
Comm    | 9.2828     | 9.4469     | 9.6236     |   3.1 |  1.87
Output  | 0.00326    | 0.0041066  | 0.013224   |   4.3 |  0.00
Modify  | 70.052     | 81.918     | 87.056     |  77.4 | 16.19
Other   |            | 6.768      |            |       |  1.34

Nlocal:          263.5 ave         273 max         251 min
Histogram: 1 0 0 1 2 3 1 2 0 2
Nghost:        5737.83 ave        5812 max        5676 min
Histogram: 1 1 1 1 2 4 1 0 0 1
Neighs:         109822 ave      116479 max      106799 min
Histogram: 3 5 0 1 0 0 0 1 0 2

Total # of neighbors = 1317867
Ave neighs/atom = 416.78273
Ave special neighs/atom = 2.0341556
Neighbor list builds = 31
Dangerous builds = 0
PPPM initialization ...
  extracting TIP4P info from pair style
  using 12-bit tables for long-range coulomb (../kspace.cpp:342)
  G vector (1/distance) = 0.31292341
  grid = 30 30 30
  stencil order = 5
  estimated absolute RMS force accuracy = 0.0033081681
  estimated relative force accuracy = 9.96245e-06
  using double precision KISS FFT
  3d grid and FFT values/proc = 8228 2700
Generated 12 of 15 mixed pair_coeff terms from arithmetic mixing rule
Setting up Verlet run ...
  Unit style    : real
  Current step  : 100000
  Time step     : 0.1
Per MPI rank memory allocation (min/avg/max) = 16.8 | 16.83 | 16.86 Mbytes
   Step        Density          Temp          Press          TotEng    
    100000   1.1217127      288.09376      3581.7808      113367.65    
    101000   1.1135813      290.02305     -262.28483      113260.43    
    102000   1.120104       295.80658      85.72049       113224.24    
    103000   1.1100963      294.51495     -314.98121      113180.23    
    104000   1.099833       299.84684     -525.05833      113240.81    
    105000   1.1048417      296.75216      209.01779      113235.94    
    106000   1.116367       296.44845      506.07912      113062.71    
    107000   1.1063074      305.64836      457.58921      113122.56    
    108000   1.101273       295.92013     -245.46289      113061.38    
    109000   1.0935515      293.67075     -595.7787       113110.04    
    110000   1.0921209      309.35199      77.01945       113225.59    
    111000   1.0948929      303.15171      197.64881      113075.95    
    112000   1.0907472      295.28153      71.313557      113067.27    
    113000   1.0952461      300.24478      602.14172      113047.75    
    114000   1.078958       303.42812     -1042.9311      113140.48    
    115000   1.0864399      303.62898     -276.55096      113117.11    
    116000   1.0851742      300.63534     -870.69438      113081.55    
    117000   1.0886833      297.10262      200.73594      113003.1     
    118000   1.0879978      300.27042      1535.3945      113099.35    
    119000   1.0816531      293.5738       1230.3162      113104.53    
    120000   1.0757756      314.33409     -153.54058      113219.33    
    121000   1.077296       295.95572     -322.38022      113096.02    
    122000   1.0792955      300.73643     -117.26175      113148.92    
    123000   1.0748242      304.61895     -338.7741       113152.35    
    124000   1.0909966      286.92036     -536.99885      112869.98    
    125000   1.0833313      300.35867     -1056.3023      113036.95    
    126000   1.0942826      294.04829      137.49037      112996.15    
    127000   1.0868153      290.48508     -476.62667      113016.14    
    128000   1.094938       302.69765      467.95242      113104.06    
    129000   1.0865979      297.02829     -284.99696      113045.59    
    130000   1.0827262      293.4482       516.97859      113144.1     
    131000   1.0941645      294.81642      749.45447      113017.32    
    132000   1.0903763      303.69052      708.64121      113078.55    
    133000   1.0846088      303.49001     -70.604517      113092.63    
    134000   1.0814098      292.22691     -734.47705      113057.97    
    135000   1.0745526      294.73843     -1290.4347      113072.38    
    136000   1.092206       304.79196     -166.20048      113155.51    
    137000   1.0908599      299.37805     -332.39246      113076.81    
    138000   1.0813788      297.9685      -476.48281      113137.2     
    139000   1.0800686      300.68875     -248.03902      113017.62    
    140000   1.0803662      301.63013      481.71693      113097.93    
    141000   1.0868296      303.14905      278.96061      113099.75    
    142000   1.0752455      292.56827     -915.39744      113066.4     
    143000   1.083138       295.74541     -1174.2607      112932.35    
    144000   1.0871969      306.40957     -77.472271      113088.29    
    145000   1.079656       299.39148     -272.08847      113018.21    
    146000   1.0778773      306.64504     -198.63679      113141.37    
    147000   1.083793       290.86465     -315.40428      112955.59    
    148000   1.0873043      299.86454      392.99197      112945.33    
    149000   1.0803527      296.45578      493.0889       113111.59    
    150000   1.0889641      299.84457      723.82888      113020.85    
Loop time of 491.251 on 12 procs for 50000 steps with 3162 atoms

Performance: 0.879 ns/day, 27.292 hours/ns, 101.781 timesteps/s
94.7% CPU use with 12 MPI tasks x no OpenMP threads

MPI task timing breakdown:
Section |  min time  |  avg time  |  max time  |%varavg| %total
---------------------------------------------------------------
Pair    | 277.48     | 301.71     | 317.84     |  71.1 | 61.42
Bond    | 1.0951     | 1.1499     | 1.2602     |   4.5 |  0.23
Kspace  | 77.728     | 93.848     | 118.1      | 127.1 | 19.10
Neigh   | 1.0023     | 1.003      | 1.0037     |   0.0 |  0.20
Comm    | 8.9503     | 9.0755     | 9.1854     |   2.2 |  1.85
Output  | 0.0032865  | 0.0041366  | 0.013271   |   4.3 |  0.00
Modify  | 66.991     | 75.94      | 82.865     |  77.0 | 15.46
Other   |            | 8.521      |            |       |  1.73

Nlocal:          263.5 ave         274 max         248 min
Histogram: 1 0 0 0 2 2 2 4 0 1
Nghost:        5605.08 ave        5666 max        5566 min
Histogram: 1 1 3 2 2 0 2 0 0 1
Neighs:         106721 ave      113956 max      101894 min
Histogram: 3 1 3 0 1 0 1 1 1 1

Total # of neighbors = 1280651
Ave neighs/atom = 405.01297
Ave special neighs/atom = 2.0341556
Neighbor list builds = 238
Dangerous builds = 0
PPPM initialization ...
  extracting TIP4P info from pair style
  using 12-bit tables for long-range coulomb (../kspace.cpp:342)
  G vector (1/distance) = 0.31221858
  grid = 30 30 30
  stencil order = 5
  estimated absolute RMS force accuracy = 0.003406682
  estimated relative force accuracy = 1.0259122e-05
  using double precision KISS FFT
  3d grid and FFT values/proc = 8228 2700
Generated 12 of 15 mixed pair_coeff terms from arithmetic mixing rule
Setting up Verlet run ...
  Unit style    : real
  Current step  : 150000
  Time step     : 0.2
Per MPI rank memory allocation (min/avg/max) = 16.8 | 16.83 | 16.86 Mbytes
   Step        Density          Temp          Press          TotEng    
    150000   1.0889641      299.84457      323.01471      113020.85    
    151000   1.0922888      305.39514      335.30881      113066.71    
    152000   1.090692       304.0434      -328.79366      113105.79    
    153000   1.0846815      294.51152     -629.01404      113044.4     
    154000   1.0830807      302.80969      44.612765      113169.56    
    155000   1.0787674      302.76244     -15.122953      112998.61    
    156000   1.08635        314.91542      96.042732      113089.98    
    157000   1.0807762      292.3409       45.740757      112976.94    
    158000   1.0754135      297.62816     -321.85189      112971.26    
    159000   1.0721035      301.28377      244.44635      113026.91    
    160000   1.0795364      302.53887      979.23357      112999.53    
    161000   1.0767653      294.46151      355.66053      112948.25    
    162000   1.0765345      296.80311      352.01747      113022.03    
    163000   1.0786309      292.98237     -149.53187      113010.7     
    164000   1.0798087      297.73063     -83.589603      112981.82    
    165000   1.0758054      295.38026      84.080538      113063.47    
    166000   1.0742577      292.63288     -366.87227      112992.55    
    167000   1.0804461      302.69245     -285.41691      113008.53    
    168000   1.0806851      286.56217      414.16346      112921.16    
    169000   1.0711078      288.56228     -978.28195      112879.16    
    170000   1.0828524      299.27367      150.28161      112979.76    
    171000   1.0781944      298.54894      258.44821      113009.72    
    172000   1.0741418      300.59084      184.32161      113041.88    
    173000   1.0777577      292.54707     -363.92295      113024.23    
    174000   1.0834294      299.87274     -633.19251      113033       
    175000   1.0838392      295.95045      148.2995       113012.39    
    176000   1.0853349      300.50584      385.6017       112982.35    
    177000   1.0721741      293.89107     -475.85563      112996.08    
    178000   1.0670111      300.86374      395.47456      113122.95    
    179000   1.0777064      304.31781     -436.97865      112982.81    
    180000   1.0891339      303.9691       995.22613      113087.9     
    181000   1.0836087      297.74602     -181.36817      113034.23    
    182000   1.086571       299.75946      1123.3317      113009.84    
    183000   1.0811598      298.02358     -186.13779      112938.28    
    184000   1.0859397      300.28702     -522.5743       112977.14    
    185000   1.0867429      298.99312      253.7823       112989.2     
    186000   1.0800789      297.65323      889.79868      112987.08    
    187000   1.0720518      301.44184     -310.55262      113027.21    
    188000   1.0809095      291.94867      359.49883      113010.57    
    189000   1.0811303      298.02379     -324.27428      113057.47    
    190000   1.0842815      284.73564     -821.72251      112921.56    
    191000   1.09417        304.32178     -42.275513      113044.82    
    192000   1.08612        291.05829     -369.2639       112991.6     
    193000   1.0955901      296.65425      434.91674      112986.69    
    194000   1.0874491      290.25812      24.241168      112969.05    
    195000   1.0878068      293.41411     -239.18099      112922.16    
    196000   1.093996       304.61022      136.95365      113044.62    
    197000   1.0876588      294.85816     -253.14435      112956.64    
    198000   1.0967911      301.00384      928.52403      113027.21    
    199000   1.0825059      297.25169      523.49623      113046.87    
    200000   1.0784967      301.95546     -303.6183       113080.45    
Loop time of 499.655 on 12 procs for 50000 steps with 3162 atoms

Performance: 1.729 ns/day, 13.879 hours/ns, 100.069 timesteps/s
94.2% CPU use with 12 MPI tasks x no OpenMP threads

MPI task timing breakdown:
Section |  min time  |  avg time  |  max time  |%varavg| %total
---------------------------------------------------------------
Pair    | 281.54     | 304.27     | 328.86     |  86.7 | 60.90
Bond    | 1.0711     | 1.1496     | 1.2371     |   4.2 |  0.23
Kspace  | 73.857     | 98.416     | 121.12     | 152.1 | 19.70
Neigh   | 2.0335     | 2.0344     | 2.0362     |   0.1 |  0.41
Comm    | 9.0166     | 9.1401     | 9.2153     |   1.8 |  1.83
Output  | 0.0032666  | 0.0041183  | 0.013216   |   4.3 |  0.00
Modify  | 67.168     | 76.101     | 83.09      |  77.0 | 15.23
Other   |            | 8.543      |            |       |  1.71

Nlocal:          263.5 ave         280 max         242 min
Histogram: 1 0 0 2 2 0 3 3 0 1
Nghost:        5603.17 ave        5625 max        5581 min
Histogram: 1 1 2 2 1 0 0 2 1 2
Neighs:         105382 ave      117144 max       93231 min
Histogram: 1 1 1 1 1 4 0 0 2 1

Total # of neighbors = 1264584
Ave neighs/atom = 399.93169
Ave special neighs/atom = 2.0341556
Neighbor list builds = 474
Dangerous builds = 0
PPPM initialization ...
  extracting TIP4P info from pair style
  using 12-bit tables for long-range coulomb (../kspace.cpp:342)
  G vector (1/distance) = 0.31198828
  grid = 30 30 30
  stencil order = 5
  estimated absolute RMS force accuracy = 0.0034394474
  estimated relative force accuracy = 1.0357794e-05
  using double precision KISS FFT
  3d grid and FFT values/proc = 8228 2700
Generated 12 of 15 mixed pair_coeff terms from arithmetic mixing rule
Setting up Verlet run ...
  Unit style    : real
  Current step  : 200000
  Time step     : 0.5
Per MPI rank memory allocation (min/avg/max) = 16.8 | 16.83 | 16.86 Mbytes
   Step        Density          Temp          Press          TotEng    
    200000   1.0784967      301.95546      2241.0589      113080.45    
    201000   1.0726772      299.22343     -130.93378      113046.51    
    202000   1.0783741      301.84362      67.134357      113089.14    
    203000   1.0805617      289.02824      297.12164      112926.94    
    204000   1.0854694      306.45783      725.25992      113060.59    
    205000   1.0855433      302.64782     -310.48167      113023.57    
    206000   1.0840146      292.88849      472.17365      112956.41    
    207000   1.0819667      303.02626      5.9856862      113076.31    
    208000   1.0582967      295.12847     -501.71134      113103.18    
    209000   1.067579       293.6684      -337.85562      113069.59    
    210000   1.0683291      297.4641       37.813238      113000.78    
    211000   1.068575       291.26892      68.163378      113005       
    212000   1.0754026      301.02229     -564.23088      113063.56    
    213000   1.071701       300.92885     -236.39931      113046.25    
    214000   1.0720899      297.00204     -598.07365      113071.42    
    215000   1.0787163      301.37549     -463.18356      112998.52    
    216000   1.0818532      293.13902     -828.97687      112928.35    
    217000   1.0786176      293.33318     -643.08647      113011.92    
    218000   1.0853328      301.25996      218.70126      112992.48    
    219000   1.0797456      294.38862      383.95263      112924.59    
    220000   1.0812415      294.74252     -47.827661      112946.26    
    221000   1.0809802      300.71115     -285.67736      112935.3     
    222000   1.0881558      297.30423      34.106849      112964.41    
    223000   1.0725137      292.46452      614.4183       113080.05    
    224000   1.0739808      292.1258       967.23047      113062.71    
    225000   1.0795057      302.83182      710.25559      113034.99    
    226000   1.0820361      295.93369     -210.43307      112931.71    
    227000   1.0797551      302.38276     -530.16742      112972.56    
    228000   1.0750317      298.29008      88.597986      112980.38    
    229000   1.0812417      295.50862     -56.845503      112827.4     
    230000   1.0775376      296.05489     -648.93144      112947.25    
    231000   1.0802881      301.86577      575.446        113060.52    
    232000   1.0711804      306.58874     -1186.7733      113008.71    
    233000   1.0716625      297.49527     -963.79425      112917.43    
    234000   1.0761273      299.12009      71.880406      112950.79    
    235000   1.0774895      287.15455     -160.26351      112830.42    
    236000   1.0801202      297.47032      419.08748      112907.56    
    237000   1.0711555      305.7018       192.56357      112923.11    
    238000   1.062401       295.83446      10.478439      112907.05    
    239000   1.0706606      294.99576      1118.4926      112870.05    
    240000   1.0705347      286.1832       355.52851      112806.47    
    241000   1.0729814      295.09071     -932.02534      112937.23    
    242000   1.073744       310.73195     -581.86625      113130.59    
    243000   1.0779877      300.4317       161.31416      113015.86    
    244000   1.0779189      287.43772     -649.14786      112872.49    
    245000   1.0733184      297.53903     -308.78264      112989.82    
    246000   1.085358       303.88932      735.3066       113045.26    
    247000   1.0725466      300.28809     -132.90286      112999.74    
    248000   1.0780946      291.75498     -994.62224      112948.84    
    249000   1.0838823      296.86639     -122.21276      112806.24    
    250000   1.0832227      292.63596      124.81793      112846.74    
Loop time of 509.919 on 12 procs for 50000 steps with 3162 atoms

Performance: 4.236 ns/day, 5.666 hours/ns, 98.055 timesteps/s
93.8% CPU use with 12 MPI tasks x no OpenMP threads

MPI task timing breakdown:
Section |  min time  |  avg time  |  max time  |%varavg| %total
---------------------------------------------------------------
Pair    | 279.74     | 305.9      | 335.6      |  98.5 | 59.99
Bond    | 1.0916     | 1.1493     | 1.2277     |   4.3 |  0.23
Kspace  | 73.774     | 103.41     | 129.52     | 169.1 | 20.28
Neigh   | 5.0115     | 5.0161     | 5.0215     |   0.1 |  0.98
Comm    | 9.3394     | 9.4652     | 9.5999     |   2.4 |  1.86
Output  | 0.0032713  | 0.0041233  | 0.013292   |   4.3 |  0.00
Modify  | 67.471     | 76.405     | 83.421     |  76.8 | 14.98
Other   |            | 8.571      |            |       |  1.68

Nlocal:          263.5 ave         268 max         256 min
Histogram: 1 1 1 1 1 1 0 0 1 5
Nghost:        5601.25 ave        5620 max        5584 min
Histogram: 1 3 1 0 0 3 1 1 0 2
Neighs:         106303 ave      113218 max      101016 min
Histogram: 2 1 1 3 0 2 0 1 1 1

Total # of neighbors = 1275638
Ave neighs/atom = 403.42758
Ave special neighs/atom = 2.0341556
Neighbor list builds = 1161
Dangerous builds = 0
  create bodies CPU = 0.000 seconds
  1054 rigid bodies with 3162 atoms
  1.4902095 = max distance from body owner to body atom
PPPM initialization ...
  extracting TIP4P info from pair style
  using 12-bit tables for long-range coulomb (../kspace.cpp:342)
  G vector (1/distance) = 0.31209257
  grid = 30 30 30
  stencil order = 5
  estimated absolute RMS force accuracy = 0.0034245747
  estimated relative force accuracy = 1.0313005e-05
  using double precision KISS FFT
  3d grid and FFT values/proc = 8228 2700
Generated 12 of 15 mixed pair_coeff terms from arithmetic mixing rule
Setting up Verlet run ...
  Unit style    : real
  Current step  : 0
  Time step     : 1
Per MPI rank memory allocation (min/avg/max) = 16.8 | 16.83 | 16.86 Mbytes
   Step        Density          Temp          Press          TotEng    
         0   1.0832227      292.63596      711.67581      112846.74    
      1000   1.0778547      293.72247      222.61483      112905.91    
      2000   1.069403       295.73085     -762.60263      112900.69    
      3000   1.0762614      299.85385     -504.12858      112885.3     
      4000   1.0809608      299.34323      972.28398      112846.16    
      5000   1.0683493      301.64904     -268.95017      112996.35    
      6000   1.0880274      301.20797      627.41659      112930.37    
      7000   1.0745323      295.49326     -908.63649      112932.31    
      8000   1.0969471      294.15902      130.05544      112877.2     
      9000   1.0834194      295.31051      215.20533      112954.96    
     10000   1.0768871      293.08344     -627.39255      112884.25    
     11000   1.0833877      298.99271     -433.79806      112939.29    
     12000   1.0711441      294.72703     -4.4780113      112902.62    
     13000   1.0830929      291.15852     -236.63215      112961.38    
     14000   1.085703       300.14051     -398.34846      112990.96    
     15000   1.0896279      294.58107      230.03594      113022.84    
     16000   1.0823825      292.37646     -120.54806      112934.06    
     17000   1.084021       292.5711       733.12329      112934.48    
     18000   1.0608465      296.73014     -650.64189      112984.04    
     19000   1.0795679      306.87088     -44.933194      112943.13    
     20000   1.0646283      294.84193     -626.00088      112982.51    
     21000   1.06512        306.53897      273.6004       113099.42    
     22000   1.0739318      307.43926      792.20061      113063.39    
     23000   1.0698012      304.55052     -12.919009      113035.33    
     24000   1.0810967      292.33097      1109.9362      112990.84    
     25000   1.0846652      308.66235      362.68657      113120.77    
     26000   1.0858183      302.37691     -217.9468       113021.43    
     27000   1.0831282      297.29612     -291.92463      112961.68    
     28000   1.0961594      303.24382      664.48765      113060.76    
     29000   1.0913141      297.42448     -243.82903      112986.35    
     30000   1.0834809      300.57204     -18.12962       113068.76    
     31000   1.0835498      296.35741      755.89217      112953.7     
     32000   1.0686139      295.94855     -121.19375      112917.69    
     33000   1.0852668      294.22224      288.39086      112856.71    
     34000   1.0705027      300.70964     -218.58185      112982.62    
     35000   1.0758481      286.81276      2.7380828      112859.49    
     36000   1.0709484      297.32104     -25.337666      112948.42    
     37000   1.0791422      298.77205     -232.03254      112954.65    
     38000   1.0779807      296.01871     -160.92746      112982.3     
     39000   1.0759724      302.30618     -377.97458      112980.84    
     40000   1.0891875      296.65506      631.19105      112923.59    
     41000   1.0720339      308.27804     -63.763089      112969.43    
     42000   1.0675041      290.01186      424.86476      112934.3     
     43000   1.0719399      299.39529      141.47913      112909.23    
     44000   1.0671077      299.42946     -831.35098      112938.14    
     45000   1.0716758      312.93084     -161.66917      113063.02    
     46000   1.0790646      298.38937      886.43032      112871.86    
     47000   1.0700187      291.17615     -416.35129      112927.5     
     48000   1.0834296      299.63422      403.07353      113027.51    
     49000   1.0765369      292.7085       113.61752      112992.43    
     50000   1.0861655      296.51699      140.54274      112973.21    
     51000   1.0896398      300.11114      226.88554      112927.54    
     52000   1.0628534      297.44396     -665.81287      113012.73    
     53000   1.0828938      295.9749      -259.36004      112874.17    
     54000   1.0837455      301.89282     -666.66431      113042.31    
     55000   1.0775125      294.58857     -299.76885      112999.21    
     56000   1.0680122      295.70091     -472.09903      112938.31    
     57000   1.0722136      295.75529      346.87617      112985.69    
     58000   1.0764126      303.63042     -123.25086      112966.02    
     59000   1.079459       301.28232      598.63441      113015.65    
     60000   1.0806294      298.13223     -384.65508      112929.29    
     61000   1.0846444      293.25944      145.24274      112894.92    
     62000   1.0715125      303.44113     -413.3073       113079.58    
     63000   1.0865386      300.70897      489.84049      112900.2     
     64000   1.0737356      290.24608      199.32569      112854.56    
     65000   1.0655137      298.71411     -370.30905      113016.14    
     66000   1.086094       299.09228      1382.3828      112942.33    
     67000   1.0757134      297.82645     -596.8582       112987.76    
     68000   1.0801054      293.88258     -130.94259      112943.3     
     69000   1.0906058      303.14533      605.31386      113077.59    
     70000   1.0870314      294.54849     -422.39432      112974.75    
     71000   1.087532       306.57663     -360.8303       112995.73    
     72000   1.0901595      288.94918     -90.925454      112930.98    
     73000   1.0805425      301.87353     -53.810718      113032.72    
     74000   1.0897152      288.47964      450.53254      112893.32    
     75000   1.0816981      293.05608     -660.09897      112937.61    
     76000   1.1023565      308.16413      625.71664      113010.92    
     77000   1.0783573      296.68904     -226.01601      112928.72    
     78000   1.0906073      294.13631      872.05004      112904.66    
     79000   1.0781906      297.90383     -878.30303      113008.97    
     80000   1.0880719      300.3891       364.18712      112967.84    
     81000   1.0678262      311.09728     -916.70616      113083.27    
     82000   1.0872509      305.51378      745.42044      113032.55    
     83000   1.0820187      293.81259     -462.48038      112986.26    
     84000   1.0778802      287.15679     -571.45064      112873.78    
     85000   1.0872855      293.71652      255.34541      112837.24    
     86000   1.0729085      297.71026      129.72123      113005.45    
     87000   1.0862225      304.40592      521.59392      113033.92    
     88000   1.0895896      297.49395     -238.30961      112944.33    
     89000   1.0849931      292.05878     -1152.6819      112910.31    
     90000   1.0919883      292.05945      699.79522      112854.5     
     91000   1.0812322      309.44669      267.83124      113080.38    
     92000   1.077574       296.64309      672.17725      112938.58    
     93000   1.0788498      287.112        492.97305      112932.12    
     94000   1.080037       292.3591       25.983469      112977.33    
     95000   1.0723303      297.44159     -537.53996      112962.82    
     96000   1.0812098      303.11337      87.457258      112980.79    
     97000   1.0729057      301.29848     -346.02922      113056.22    
     98000   1.0913003      297.95987      338.55684      112915.04    
     99000   1.0888525      296.88829      322.39629      112989.7     
    100000   1.0856585      293.71637     -178.03762      112917.84    
    101000   1.0837445      290.16032      446.79883      112977.69    
    102000   1.0824303      304.49698      680.47546      113041.33    
    103000   1.0711402      298.85313      38.11831       112968.04    
    104000   1.0756292      294.01978     -162.64572      112971.72    
    105000   1.0824785      291.48679      104.1208       113032.81    
    106000   1.0800918      305.12353     -157.03719      113008.93    
    107000   1.0935362      291.91229      672.43214      112921.48    
    108000   1.0795711      296.51974     -44.82738       113013.92    
    109000   1.0909521      295.07664      728.41878      112944.27    
    110000   1.0853899      297.73549     -193.77963      112993.72    
    111000   1.0861494      298.32547      893.41694      112962.1     
    112000   1.0809243      297.51349      13.116761      112906.13    
    113000   1.0715333      296.56785     -472.4067       113050.43    
    114000   1.0968363      293.75811      7.2693482      112956.91    
    115000   1.0813699      297.7643       459.30477      113049.61    
    116000   1.0782277      295.13579     -79.49906       112996.54    
    117000   1.0735583      304.64255     -631.44849      113161.98    
    118000   1.0753942      295.86825     -421.04292      112971.07    
    119000   1.0766573      299.58848     -454.8998       112912.91    
    120000   1.0792754      311.45313      1472.2778      113023.23    
    121000   1.0554405      300.28534     -892.31944      113024.15    
    122000   1.097125       297.64315      1138.3361      112882.93    
    123000   1.0832165      286.57973     -292.17622      112785.46    
    124000   1.0818462      295.751       -670.12         112957.44    
    125000   1.0768428      279.86541     -243.78663      112839.84    
    126000   1.070651       296.77705     -836.02426      112960.71    
    127000   1.08816        292.31634      227.2207       112922.23    
    128000   1.081632       294.93201     -627.98933      112903.46    
    129000   1.0871908      293.98002     -439.80552      112913.89    
    130000   1.0747423      293.55285     -276.64656      113016.67    
    131000   1.0740123      302.33894     -381.56345      113124.34    
    132000   1.0706221      301.53471     -93.767108      112999.07    
    133000   1.0744825      298.94792     -459.86523      112967.19    
    134000   1.0790379      296.86487      361.09357      112971.43    
    135000   1.076947       298.70115      52.843349      112919.3     
    136000   1.0832587      292.50452     -282.53274      112984.28    
    137000   1.0809529      292.75781      224.1263       112870.7     
    138000   1.0746201      296.86551      56.234308      112963.05    
    139000   1.0768729      288.37115     -519.26096      112938.52    
    140000   1.0949855      296.55437     -63.480134      112926.57    
    141000   1.0754579      295.79148     -199.23648      112992.43    
    142000   1.0914163      296.67417      810.76022      112956.79    
    143000   1.0895883      297.39466      1335.9645      113014.91    
    144000   1.0823389      291.68351     -553.59936      112966.12    
    145000   1.0749521      303.46684      427.97294      113129.97    
    146000   1.0851166      300.61155      355.19613      112906.13    
    147000   1.0679502      304.49796     -849.11421      113111.97    
    148000   1.0782701      301.61653      315.08875      112929.16    
    149000   1.081674       302.85229      2.5131863      112978.65    
    150000   1.0713877      299.03141      34.94056       113063.15    
    151000   1.0727886      297.62448     -32.086163      112990.44    
    152000   1.0799259      300.60635      308.04419      113057.93    
    153000   1.0636377      296.16506      351.27717      112986.62    
    154000   1.0766336      299.35623      746.34285      113061.65    
    155000   1.0847333      299.51796      162.46165      113021.74    
    156000   1.0721354      298.53146     -147.17703      113007.66    
    157000   1.0798868      294.90243      707.38407      113031.63    
    158000   1.0658669      297.27452     -609.69142      112960.62    
    159000   1.0789609      295.13348     -386.64095      112974.73    
    160000   1.0813635      288.10637     -142.47512      112918.33    
    161000   1.0877316      301.42717     -15.248737      112937.9     
    162000   1.0841158      295.50126     -848.4731       112999.6     
    163000   1.077082       299.46756     -578.3875       112962.04    
    164000   1.0918878      295.34024      877.21312      112907.64    
    165000   1.0762632      289.69327     -433.06018      112936.16    
    166000   1.0898058      303.19429     -209.90155      113001.22    
    167000   1.0806347      297.58002      184.33738      113006.3     
    168000   1.07955        301.54604     -492.88495      113000.42    
    169000   1.0798642      297.79004      11.415864      113054.03    
    170000   1.0734806      298.00964     -509.37132      113004.53    
    171000   1.0917136      307.74802      80.587936      113007.21    
    172000   1.0837969      300.0141       187.1499       112948.07    
    173000   1.0623463      308.6726       105.79515      113169.22    
    174000   1.0823311      291.46625      835.00456      112917.21    
    175000   1.0647464      292.26154     -175.70759      112931.96    
    176000   1.0701097      297.70704     -664.12561      113012.19    
    177000   1.0636883      310.76605     -305.46652      113008.08    
    178000   1.0727825      295.28554     -554.16257      112956.62    
    179000   1.0914021      299.54685     -108.72828      112958.29    
    180000   1.0866958      292.82342     -95.985421      112893.63    
    181000   1.0871614      294.30443      7.0690873      112891.59    
    182000   1.084441       292.50697     -322.88213      112979.79    
    183000   1.0743056      301.21259     -634.02661      113007.29    
    184000   1.0834835      296.3991      -438.26527      112934.06    
    185000   1.0876532      300.69229     -202.23148      113011.08    
    186000   1.067643       295.25632     -343.63615      112986.67    
    187000   1.0824873      293.55351      445.04618      112916.96    
    188000   1.0679262      300.84106     -114.44952      113015.6     
    189000   1.085157       298.82143      640.48856      112959.14    
    190000   1.0939238      308.19645      748.80227      113040.53    
    191000   1.0856098      298.21112     -628.86468      113044.16    
    192000   1.0834783      290.0148       452.38864      112948.38    
    193000   1.0756395      294.75322     -612.25218      112961.17    
    194000   1.08883        295.80647      327.94792      112971.85    
    195000   1.0806105      296.12015      566.05415      112933.9     
    196000   1.0737949      296.83083     -545.00215      112922.69    
    197000   1.081008       303.82572      214.46287      112995.9     
    198000   1.0690088      302.2319       175.85315      113006.34    
    199000   1.0858642      300.8531       487.9732       112996.97    
    200000   1.0851431      296.47889      313.43498      112989.77    
    201000   1.0839384      304.55688      15.884017      113054.12    
    202000   1.0889361      295.20288      334.039        112948.27    
    203000   1.0783063      302.46462     -241.86438      113092.02    
    204000   1.0704886      300.93209     -676.03607      112968.49    
    205000   1.0797708      296.50155      31.147557      112857.24    
    206000   1.0754993      294.99745     -877.45083      112843.09    
    207000   1.085673       294.99829      355.79852      112979.87    
    208000   1.0802169      292.71382      184.52727      112983.85    
    209000   1.0739142      295.89747     -4.885533       112862.69    
    210000   1.0918949      305.72815      895.4875       112976.48    
    211000   1.0699755      304.62984     -558.0449       112997.23    
    212000   1.0879593      301.64841     -97.948142      112959.48    
    213000   1.0747591      296.57488     -539.19156      112920.58    
    214000   1.0801719      307.07         147.09446      112985.65    
    215000   1.0768974      304.15775     -20.318936      112909.99    
    216000   1.0775444      303.69027     -8.2171777      113046.09    
    217000   1.0891587      293.23553      485.5823       112985.13    
    218000   1.0889234      294.76681     -224.24301      112911.65    
    219000   1.0710252      310.80142      62.081796      113026.11    
    220000   1.083131       295.5316       380.34329      112901.89    
    221000   1.0762532      298.25762     -1027.5919      112962.21    
    222000   1.0907247      297.00945      432.74563      112840.44    
    223000   1.0850989      306.64093      22.480631      112963.7     
    224000   1.085408       307.99135      262.55185      113031.61    
    225000   1.0816353      296.61297     -258.76373      112935.97    
    226000   1.084305       286.94653      431.91355      112882.85    
    227000   1.082631       297.9263       125.66326      112910.57    
    228000   1.0738063      295.14478     -531.75945      112971.69    
    229000   1.0797915      305.98453     -126.73602      112978.37    
    230000   1.0714904      299.15962     -4.1275378      112998.7     
    231000   1.0726083      302.76567      210.53367      112990.27    
    232000   1.070758       295.8243      -273.78203      112922.76    
    233000   1.0973554      302.55105      685.48318      112859.02    
    234000   1.0754489      290.56763     -281.60402      112879.98    
    235000   1.0852875      295.39582      96.886866      112889.12    
    236000   1.0795585      308.47523     -1204.5676      113011.46    
    237000   1.0861432      302.23595     -376.80585      112865.11    
    238000   1.0827172      295.83384      83.327737      112954.74    
    239000   1.0911001      292.63061      420.89797      112904.2     
    240000   1.0816182      299.62073      87.470205      112953.88    
    241000   1.0754769      302.99689      551.27368      113122.02    
    242000   1.0818163      308.20419      652.48373      113017.94    
    243000   1.0661129      292.37921     -393.61842      112935.83    
    244000   1.0725711      289.4136      -47.398528      112834.68    
    245000   1.0600946      301.13804     -809.53731      113033.66    
    246000   1.0740919      299.2414       764.1035       112997.6     
    247000   1.0701761      297.59887     -82.973398      112958.81    
    248000   1.0680131      292.08047     -855.86159      113004.16    
    249000   1.0817564      300.90256      144.38868      112969.39    
    250000   1.0965813      294.11177      555.38421      112835.7     
    251000   1.0856573      293.38159     -307.05249      112936.03    
    252000   1.0797539      305.67133      184.81248      113049.18    
    253000   1.0783251      302.48951     -187.81         113001.62    
    254000   1.0716748      298.74461      339.31141      112956.91    
    255000   1.0619819      296.53763     -508.80115      113004.22    
    256000   1.072645       294.57347      845.7859       112842.52    
    257000   1.0743965      300.05524     -339.62373      112977.55    
    258000   1.0768497      302.86754      431.48006      113034.92    
    259000   1.0938186      306.47082     -195.0905       113049.85    
    260000   1.0681629      300.02414     -619.90215      112997.96    
    261000   1.0766873      307.61905     -402.35802      113065.96    
    262000   1.0783118      310.8735      -447.15587      113081.03    
    263000   1.0759825      299.77947     -809.91811      112921.65    
    264000   1.0845997      306.69178      354.50433      112961.25    
    265000   1.0777369      297.32724     -173.90218      112924.74    
    266000   1.0705126      298.40385      14.320227      113007.4     
    267000   1.0870206      301.00176      251.30155      112885.56    
    268000   1.0767868      294.63273     -165.49937      112936.61    
    269000   1.0729116      295.28317      460.30209      113011.63    
    270000   1.0793567      303.83297     -125.90558      113065.6     
    271000   1.0886399      295.30691      399.73043      113079.32    
    272000   1.082513       299.02234      490.54194      113044.45    
    273000   1.0840183      295.11603      79.314578      112950.64    
    274000   1.0905226      302.89815      237.12757      113050.67    
    275000   1.0859992      299.03227      155.29682      112887.78    
    276000   1.0726278      296.31575      209.17842      112908.46    
    277000   1.0757439      302.49992     -758.65445      112951.97    
    278000   1.0785159      296.55243     -141.69788      112930.5     
    279000   1.0813546      301.46759      389.2732       113005.01    
    280000   1.0734174      301.74943      251.44734      112990.64    
    281000   1.0699911      292.63623     -93.727398      112917.33    
    282000   1.0726835      306.78898      623.34796      113030.69    
    283000   1.0630785      291.01946     -529.80588      112908.62    
    284000   1.076632       302.69038     -133.60245      113061.14    
    285000   1.0736049      297.53971     -178.12088      112920.24    
    286000   1.0693221      307.92449     -1078.258       113088.77    
    287000   1.0821715      300.03499     -141.0412       112921.54    
    288000   1.0835303      291.04423     -66.027148      112957.33    
    289000   1.0746919      299.67316     -176.14501      112997.18    
    290000   1.0851094      297.99026      900.6503       112951.01    
    291000   1.0556438      295.61418     -607.27774      112973.5     
    292000   1.0856901      303.94683     -243.57984      112919.38    
    293000   1.06696        299.17562     -274.5676       112963.83    
    294000   1.0873234      296.174        955.19749      112894.96    
    295000   1.0763589      286.72548     -10.833543      112910.42    
    296000   1.092902       301.72838      905.9206       112972.71    
    297000   1.0871254      292.98878      368.74872      112934.23    
    298000   1.0790943      296.37656      152.41161      112987.95    
    299000   1.0678017      296.34252     -292.97524      112948.51    
    300000   1.0760395      296.65061      200.89778      113020.08    
    301000   1.0793366      301.79948      101.25018      112967.1     
    302000   1.0839012      302.76895      857.65651      112946.35    
    303000   1.0806616      292.55731     -204.12845      112840.33    
    304000   1.0729531      293.5506      -100.10953      112857.94    
    305000   1.0890447      295.56445      938.91619      112813.63    
    306000   1.0756837      301.89601     -762.61137      112902.49    
    307000   1.0776871      293.15087      677.26904      112944.21    
    308000   1.0780146      285.79854      221.34786      112837.98    
    309000   1.0728437      306.10085      1186.2463      113012.23    
    310000   1.0658033      299.43508     -470.47447      112953.22    
    311000   1.0811317      291.76769      1105.0363      112907.81    
    312000   1.0769512      303.0512       271.29044      112975.3     
    313000   1.0803205      303.14903     -497.69808      113026.17    
    314000   1.0780271      297.86388      64.560477      112944.23    
    315000   1.0815188      294.63126     -427.67171      112849.21    
    316000   1.0702357      298.7072       78.314199      112961.81    
    317000   1.0825713      305.63962      577.48323      112983.64    
    318000   1.0803668      302.90752      543.0034       112994.19    
    319000   1.0833688      293.69726      273.96793      112873.43    
    320000   1.0892463      296.63107     -202.81059      112960.03    
    321000   1.081964       305.11877      263.21724      113038.69    
    322000   1.0785503      304.7119       48.850008      113034.6     
    323000   1.0884281      293.96926      62.374156      112872.8     
    324000   1.0662502      293.93237     -413.02717      112962.66    
    325000   1.0746177      295.93109      599.91539      112937.79    
    326000   1.0643309      292.8413       430.49101      112940.68    
    327000   1.0676054      293.4903      -340.61939      112932.51    
    328000   1.0800612      291.94521      854.82651      112981.35    
    329000   1.0602803      297.82983     -453.83417      113019.38    
    330000   1.0762372      305.69837      209.72697      113016.33    
    331000   1.0824624      296.05924      756.02601      113094.25    
    332000   1.0828622      310.38027      271.92996      113063.82    
    333000   1.0839254      297.69115      746.33944      112905.69    
    334000   1.080467       290.17516     -194.988        112952.41    
    335000   1.0839444      299.85297      678.58083      112948.96    
    336000   1.0802566      300.11792      374.47758      112950.68    
    337000   1.0821014      300.06435     -245.97816      112989.05    
    338000   1.0822538      300.37103      32.762676      112998.23    
    339000   1.0670375      289.49314     -98.676471      112924.11    
    340000   1.0882333      295.09055     -242.98443      112979.6     
    341000   1.070275       304.19127     -862.84499      113006.88    
    342000   1.0808813      298.2196       532.82544      112977.13    
    343000   1.0777844      306.60181      304.69715      113008.17    
    344000   1.0763884      300.64761      435.51279      112997.18    
    345000   1.0764048      300.31648      430.32798      112990.76    
    346000   1.0862139      297.62048     -122.42013      112930.47    
    347000   1.0751554      301.30371     -117.62564      112936.43    
    348000   1.0810667      294.35022      117.27464      112863.78    
    349000   1.0600924      295.02247     -251.71029      112845.41    
    350000   1.0734401      308.31501     -212.07638      113032.5     
    351000   1.0761656      306.84632     -502.61248      112927.71    
    352000   1.0722605      289.02196      493.55907      112964.23    
    353000   1.0729622      297.23515      56.21237       112840.78    
    354000   1.0713446      296.14024      750.78661      112891.67    
    355000   1.07539        291.35261      376.7886       112918.05    
    356000   1.0791012      296.94615     -376.08093      112947.07    
    357000   1.0816065      300.77107      429.03097      112983.98    
    358000   1.0792042      297.93624      803.79524      113015.04    
    359000   1.086019       292.92929      664.24293      112916.51    
    360000   1.069025       297.26731     -1341.1816      112904.58    
    361000   1.0835209      295.33013      711.55051      112988.93    
    362000   1.0954797      302.02708      216.70009      112902.43    
    363000   1.0866678      292.52444     -640.83847      112953.27    
    364000   1.0716317      299.32403     -225.30457      113019.02    
    365000   1.0820302      288.63396      932.44729      112900.22    
    366000   1.0740532      296.17467      34.477012      112949.59    
    367000   1.0714418      302.43679      360.35794      112946.93    
    368000   1.0721665      297.9389       26.731835      112962.62    
    369000   1.0829793      295.62769      236.51772      112904.12    
    370000   1.0765712      297.20982     -141.96539      112899.74    
    371000   1.0713089      292.13123     -258.58626      112934.2     
    372000   1.0738759      295.4839      -281.1604       112885.79    
    373000   1.0842501      301.49719      739.21217      113088.87    
    374000   1.0733653      305.56955     -423.47415      113068.25    
    375000   1.0845251      288.3821       276.3515       112929.27    
    376000   1.0774222      296.04345     -237.23396      112939.71    
    377000   1.0888829      287.7527       272.93142      112932.7     
    378000   1.0768773      300.88979     -509.4075       113021.55    
    379000   1.0846889      307.49554      245.85065      113043.47    
    380000   1.0722815      304.93232     -361.8511       113018.46    
    381000   1.0831616      302.47042     -268.73262      112984.58    
    382000   1.0805964      301.54958     -70.035073      113049.5     
    383000   1.076882       300.15754      371.22795      112952.14    
    384000   1.0763371      300.10739      351.47814      112946.44    
    385000   1.0698334      300.93905      551.08289      112927.53    
    386000   1.0776593      295.90724      278.26051      112965.66    
    387000   1.0800612      286.04605      63.392517      112883.8     
    388000   1.0778963      302.36242      113.14277      113056.59    
    389000   1.0819321      304.60649      548.44672      112967.85    
    390000   1.060886       302.75655     -295.74694      112962.15    
    391000   1.0688443      300.36256      347.47119      112890.22    
    392000   1.0759747      301.41042      956.23094      112867.31    
    393000   1.0715426      303.26315      331.79192      113011.18    
    394000   1.0735083      310.41559      210.65941      113020.82    
    395000   1.0794898      291.97709     -57.166677      112911.66    
    396000   1.0786764      298.25885     -820.02301      112907.69    
    397000   1.0770976      307.1913       670.42053      113020.11    
    398000   1.0669522      298.72055      170.00307      113018.31    
    399000   1.0743719      295.88109     -440.68727      112943.55    
    400000   1.0826334      289.36677      389.1586       112902.81    
    401000   1.063353       295.37308     -557.85418      112956.3     
    402000   1.0874378      291.77289      1503.0933      112932.13    
    403000   1.0663671      297.08585     -297.98176      113002.25    
    404000   1.0877956      299.98471      584.62016      112894.26    
    405000   1.0712413      298.27609     -277.39999      112987.74    
    406000   1.0809463      298.82159     -312.00808      112938.9     
    407000   1.084433       292.42425      147.70867      112922.31    
    408000   1.0836232      306.2877      -279.53843      112958.81    
    409000   1.1000421      294.71082      566.06607      112834.63    
    410000   1.0739936      296.06159     -425.48932      113005.7     
    411000   1.0856426      298.13548      790.62069      112921.75    
    412000   1.0676268      293.91702     -811.31142      112897.92    
    413000   1.0843444      295.27069      405.98099      112938.16    
    414000   1.0787603      286.7472      -482.8366       112892.86    
    415000   1.0818419      285.93154     -204.90666      112787.14    
    416000   1.0713168      293.07711     -428.18802      112951.52    
    417000   1.0816112      308.21055      430.38466      113001.95    
    418000   1.0696695      286.92478     -716.95129      112906.91    
    419000   1.082587       295.31541     -155.91576      112972.51    
    420000   1.0857476      306.59007     -24.124517      113004.79    
    421000   1.0770571      298.17226      318.95442      113051.65    
    422000   1.0800045      303.18716      1060.867       113124.19    
    423000   1.0737045      303.4812       321.56506      113080.3     
    424000   1.0836828      298.99497     -79.790699      113015.61    
    425000   1.0812009      304.29665     -658.81105      113002.85    
    426000   1.0823413      302.33062     -15.457626      112972.93    
    427000   1.0779926      292.1957       101.43384      112896.46    
    428000   1.0834891      302.94265      104.81756      112992.16    
    429000   1.0659264      294.59803      249.06124      112955.95    
    430000   1.0799444      303.70022      132.94507      112973.65    
    431000   1.0775326      297.86213      86.977859      112900.89    
    432000   1.0781915      294.4124      -211.83789      112921.43    
    433000   1.0875493      289.86395      801.25749      112893.75    
    434000   1.0639952      287.95304     -1486.3546      112909.61    
    435000   1.0905522      296.60783      450.21965      113021.15    
    436000   1.0767676      305.97386     -129.42357      113052.2     
    437000   1.0755265      291.99268     -239.2643       112837.6     
    438000   1.0784477      296.70993      288.20374      112840.91    
    439000   1.0852413      296.11262      59.698165      112963.82    
    440000   1.0808366      298.39236     -387.74776      112944.5     
    441000   1.0777123      295.86219      407.1177       112909.33    
    442000   1.0722821      288.46321     -122.8539       112845.59    
    443000   1.0820436      297.47271      139.92883      112892.72    
    444000   1.0757363      310.81694      522.76605      113098.48    
    445000   1.0812156      296.07656      513.35707      112953.28    
    446000   1.078561       292.47459     -329.31421      112894.96    
    447000   1.0678711      293.55183     -305.5037       112978.05    
    448000   1.0716517      305.63546      469.9616       113011.14    
    449000   1.0818038      295.19553      306.96631      112965.62    
    450000   1.0689981      289.12912     -72.13216       112947.51    
    451000   1.0745147      300.26437     -180.16686      112972.98    
    452000   1.0814144      292.34111      570.06944      112873.47    
    453000   1.075327       290.0535      -342.15229      112977.37    
    454000   1.0849185      301.61547      57.054675      113003.16    
    455000   1.076797       288.87723     -296.14814      112936.51    
    456000   1.0814252      299.15748      127.61144      112944.18    
    457000   1.0886404      305.39466      68.184208      113051.89    
    458000   1.0769447      305.25672     -379.88692      112969.23    
    459000   1.0871573      298.36058      303.90161      112893.9     
    460000   1.0744875      297.72738     -774.97124      112931.2     
    461000   1.099095       297.88738      522.67405      112941.12    
    462000   1.0796475      305.92074      533.60205      112981       
    463000   1.0847077      298.63612      708.03023      113023.94    
    464000   1.076069       300.80241     -479.65637      113005.17    
    465000   1.0793211      299.36577     -346.9917       112963.93    
    466000   1.0669187      299.89159     -445.75717      113006.35    
    467000   1.081727       302.132        665.9158       112963.99    
    468000   1.0689277      295.62911      346.16126      112936.38    
    469000   1.0744695      304.80063      373.64385      112932.89    
    470000   1.0693937      303.18318     -381.31798      112932.95    
    471000   1.0805918      293.0284       702.94552      112903.09    
    472000   1.0764097      295.3946       4.4880721      112993.4     
    473000   1.0886862      297.4956       406.36801      112946.01    
    474000   1.0869197      289.84872      791.56526      113000.77    
    475000   1.0908056      294.08518     -821.64422      112943.57    
    476000   1.0914392      292.0968      -143.75339      112893.56    
    477000   1.0818053      290.50229      155.60446      112930.73    
    478000   1.0858237      298.99231      17.616968      112933.95    
    479000   1.0814491      303.96131     -377.48455      112937.24    
    480000   1.0919539      295.73141      19.650815      113001.3     
    481000   1.08659        293.53487      1092.3896      112936.52    
    482000   1.0761533      305.25516      316.29537      113100.29    
    483000   1.0959081      298.19502      370.46625      113034.79    
    484000   1.0764596      302.19821     -215.91983      113072.38    
    485000   1.0757464      295.25604     -608.33286      112962.28    
    486000   1.066579       301.42085     -650.11198      113010.45    
    487000   1.0827427      292.64243      734.71384      112914.73    
    488000   1.0674141      295.44252     -459.37644      112927.46    
    489000   1.0870355      294.15746      161.41289      112928.25    
    490000   1.0748398      290.60528     -248.24453      112925.06    
    491000   1.0898895      301.6912       1628.5217      113006.42    
    492000   1.0819698      299.55416      475.84473      112976.34    
    493000   1.0879735      298.09118      777.34041      112987.84    
    494000   1.0795366      308.71179     -250.70432      112960.09    
    495000   1.0748345      293.31802     -681.143        112967.92    
    496000   1.0895237      291.90255      965.01209      112909.69    
    497000   1.0771289      307.57847     -313.96955      113047.48    
    498000   1.0888808      292.37637      240.31878      112912.45    
    499000   1.0890178      296.14142      64.509747      112956.21    
    500000   1.0888712      290.05836      1137.6165      112914.08    
    501000   1.0762425      297.67985     -141.49364      112982.26    
    502000   1.0778136      299.90883      335.44963      112982.29    
    503000   1.0777472      300.16453     -589.80639      112975.49    
    504000   1.0792368      297.67799      366.38513      112910.41    
    505000   1.0748212      300.18434     -418.84135      113036.06    
    506000   1.0603844      293.9609      -1117.7318      112913.96    
    507000   1.083543       291.88181      595.60592      112899.09    
    508000   1.0754692      291.08036     -580.75018      112951.68    
    509000   1.0938361      298.41861      1093.0356      112914.95    
    510000   1.0720517      299.31636     -1070.2706      112951.11    
    511000   1.0803834      297.7493      -113.86081      112995.81    
    512000   1.0882746      296.73672      507.89162      112939.99    
    513000   1.0716824      299.90963     -809.59379      113039.19    
    514000   1.0915166      294.89815      1391.4903      112869.66    
    515000   1.0769494      297.06494      103.63562      112898.28    
    516000   1.0742669      296.44544      370.04341      113022.77    
    517000   1.0818832      299.91343      36.434038      112928.08    
    518000   1.0900432      291.53996      203.91997      112938.16    
    519000   1.0856955      297.89322     -562.02904      112869.33    
    520000   1.0831161      292.34512     -48.875464      112872.68    
    521000   1.0822212      296.64947     -181.8786       112938.29    
    522000   1.0707108      300.87266     -780.09729      112961.88    
    523000   1.0911837      289.9636       974.06022      112896.64    
    524000   1.0658654      300.55006     -763.9411       113096.31    
    525000   1.0790209      301.62034      214.94826      112942.7     
    526000   1.0752689      290.70357     -298.33717      112975.21    
    527000   1.0795608      300.86105      569.94023      112922.43    
    528000   1.0738569      291.11917      89.671105      112923.11    
    529000   1.0955157      294.53643      1016.5758      112827.91    
    530000   1.0649386      302.00013     -1437.2734      113019.5     
    531000   1.0897164      297.17683      1909.0168      112950.2     
    532000   1.0675846      301.90933     -584.48076      113014.83    
    533000   1.0836492      294.91139     -165.38937      112850.89    
    534000   1.0719782      298.85985     -743.50022      112973.34    
    535000   1.0838172      299.41369     -38.201263      112970.27    
    536000   1.0769274      297.7259      -34.952038      112980.07    
    537000   1.0837844      303.8332       81.916671      112993.88    
    538000   1.0802967      302.04155     -639.65752      112938.26    
    539000   1.0858256      298.62877      144.20027      112866.63    
    540000   1.096631       302.02511      546.74993      112983.44    
    541000   1.0695634      292.67496     -549.3128       112888.06    
    542000   1.0834861      293.06479     -195.25731      112854.58    
    543000   1.0722925      298.53721      84.621704      113014.91    
    544000   1.0870956      307.40964      649.36697      112882.06    
    545000   1.0814159      299.04233     -572.72288      112984.54    
    546000   1.0719058      290.71925     -605.21559      112872.31    
    547000   1.0841817      289.91904      564.20075      112956.63    
    548000   1.084647       298.41261      262.20642      112913.14    
    549000   1.0845567      311.23448      188.22758      113014.43    
    550000   1.0841355      293.7938      -1237.3358      112846.53    
    551000   1.0755333      301.42426      218.06892      113067       
    552000   1.0798042      296.91319      135.48701      112908.61    
    553000   1.0764314      289.39778     -290.54779      112974.34    
    554000   1.0788658      300.88261     -324.38649      113009.91    
    555000   1.0682349      303.54419     -61.844026      113062.05    
    556000   1.0786321      293.58731      703.36943      112965.32    
    557000   1.0738459      301.50674      52.485168      112973.43    
    558000   1.0874287      299.33727     -867.6745       113031.56    
    559000   1.0951417      301.57267      304.78704      113050.64    
    560000   1.0661918      303.69065     -879.07456      113048.02    
    561000   1.0867453      300.40043      334.12993      112988.46    
    562000   1.0765522      296.02689     -581.06883      112936.6     
    563000   1.0817599      294.15674     -313.99618      112899.09    
    564000   1.067979       297.10438     -366.1058       112973.5     
    565000   1.0710801      301.99006      260.62083      112989.56    
    566000   1.0750693      296.57638     -567.99378      112969.81    
    567000   1.0769947      295.62479      132.10978      112878.2     
    568000   1.0887051      293.43268      9.824724       112898.58    
    569000   1.0789858      305.48068      180.84851      113027.58    
    570000   1.0760722      300.10237     -722.11293      112968.44    
    571000   1.0664001      292.28247     -285.67828      112959.86    
    572000   1.0868707      293.11322      31.652015      112970.85    
    573000   1.0802205      296.86877      338.27492      112952.2     
    574000   1.0637996      305.83321     -755.71644      112963.25    
    575000   1.0691928      295.24256      358.92181      112913.07    
    576000   1.0627276      309.41941     -777.57519      113025.98    
    577000   1.0826757      299.21219      26.727745      112892.13    
    578000   1.0607006      293.31576     -484.80083      112941.47    
    579000   1.0670139      297.10737      67.391868      112917.48    
    580000   1.0883545      300.36068      620.20672      112867.98    
    581000   1.0597319      296.21774     -138.44949      113037.77    
    582000   1.0852302      302.91445      651.00709      112929.03    
    583000   1.0794989      296.26573      421.86259      112966.89    
    584000   1.0928406      287.06787      88.415818      112769.77    
    585000   1.0808177      303.00068      222.01838      112967.88    
    586000   1.0882038      288.84846      400.38541      112954.68    
    587000   1.0643254      301.02668     -913.48417      113073.16    
    588000   1.0763185      296.67898     -471.126        112953.33    
    589000   1.0695376      300.20935     -198.3593       112950.09    
    590000   1.0686464      298.921        116.38025      112948.87    
    591000   1.0749768      304.53942      61.668389      113047.84    
    592000   1.0768064      293.43206      121.06559      112928.42    
    593000   1.0747715      296.88979      127.95569      112906.87    
    594000   1.0687486      299.76524     -420.49398      112952.17    
    595000   1.0806748      280.74947      33.295841      112834.71    
    596000   1.0786277      298.96678      110.08352      112897.09    
    597000   1.0772412      299.75935     -404.01261      113012.47    
    598000   1.077427       295.75466      773.48941      113031.77    
    599000   1.0740931      302.83981     -8.5130277      113039.72    
    600000   1.0735833      288.84016     -125.31661      112906.97    
    601000   1.0813513      292.98095      378.00357      112902.29    
    602000   1.0760177      302.79829     -224.17205      113022.29    
    603000   1.090926       294.67691     -287.61956      112926.23    
    604000   1.0808739      295.77165     -178.77835      112936.21    
    605000   1.0822846      292.96135     -484.29401      113029.37    
    606000   1.0809669      292.25284     -547.7861       112937.44    
    607000   1.0821593      292.57194     -387.02382      112970.68    
    608000   1.0698675      304.95123     -924.9427       113028.58    
    609000   1.0831255      287.76002      361.50101      112809.53    
    610000   1.0692303      297.15673     -767.44508      112868.69    
    611000   1.0858879      304.43316      681.39388      112992.26    
    612000   1.0761215      296.38864     -88.518406      112903.11    
    613000   1.0860846      296.75995      681.87473      112996.58    
    614000   1.0731574      293.27266      609.34783      112977.28    
    615000   1.0767777      294.4447       385.45364      112965.12    
    616000   1.0731692      305.24683     -403.64582      113129.21    
    617000   1.0849852      297.40351     -801.58644      112953.95    
    618000   1.0848792      298.56413     -63.522262      112985.68    
    619000   1.082341       291.85253      182.37517      112962.48    
    620000   1.0736579      298.79192      251.47643      112940.28    
    621000   1.0730307      291.34681      25.436088      112929.23    
    622000   1.0776281      284.23516     -720.03218      112907.46    
    623000   1.0742829      305.72818     -113.63334      113052.63    
    624000   1.086658       288.51466      891.462        112962.2     
    625000   1.0730651      297.84588     -499.94241      113018.44    
    626000   1.07721        292.98247     -448.96968      112935.89    
    627000   1.0830223      318.36256      185.74703      113124.02    
    628000   1.0642907      297.6561      -523.13442      112995.91    
    629000   1.0787465      286.54782      41.43964       112860.71    
    630000   1.0737049      308.99901     -380.54199      113050.24    
    631000   1.0878132      295.02554     -329.13831      112939.22    
    632000   1.0845885      299.42179     -299.34029      112922.91    
    633000   1.0910965      299.16951      1117.0054      112919.03    
    634000   1.0801391      300.22753     -574.27955      112964.35    
    635000   1.0887893      302.67799      456.82242      113052.88    
    636000   1.0740241      295.53069     -699.11772      113002.7     
    637000   1.0892494      294.39093      649.64406      112977.77    
    638000   1.0718125      293.46971     -724.34426      112994.31    
    639000   1.0866325      297.81197      425.7572       112923.61    
    640000   1.0707856      292.67755     -632.58192      112888.36    
    641000   1.0911414      292.93192      1367.0629      112912.18    
    642000   1.0795915      303.09827     -239.95493      113062.42    
    643000   1.0812433      300.29826      224.10829      112967.44    
    644000   1.0647466      294.53952     -633.4865       112991.88    
    645000   1.0708793      290.50272     -229.7283       112947.98    
    646000   1.0823931      298.14088     -184.16186      112910.9     
    647000   1.0639025      290.82444     -137.00117      112955.62    
    648000   1.0772698      288.68178      102.38293      112800.7     
    649000   1.0668902      299.86892     -1031.2206      112925.19    
    650000   1.0740906      296.59428     -465.36142      112969.6     
    651000   1.0795256      296.64007     -311.85097      112922.16    
    652000   1.0782429      294.26281     -134.23321      112912.91    
    653000   1.0756184      303.31012     -3.3986647      113061.82    
    654000   1.0760209      295.38938      209.28711      112856.36    
    655000   1.0715913      301.73693     -1280.9414      112996.5     
    656000   1.0775868      290.0392      -431.79914      112894.48    
    657000   1.0785444      303.70095      1007.4415      113041.59    
    658000   1.0772922      292.99795     -308.01265      112928.49    
    659000   1.0844954      307.08752      86.891317      113039.21    
    660000   1.0790429      303.95221      310.28554      113000.09    
    661000   1.0843936      295.96477     -198.24492      112931.61    
    662000   1.0836556      302.05625      624.32547      113029.07    
    663000   1.0822926      301.22969     -581.40563      112959.44    
    664000   1.0737085      288.77923     -49.938852      112985.78    
    665000   1.0782279      303.11804      151.42319      113031.8     
    666000   1.0741004      289.84242     -164.94286      112847.29    
    667000   1.0827807      305.34712      348.19681      112951.46    
    668000   1.0646843      299.2203      -203.84333      112983.51    
    669000   1.0865211      287.72378      552.32889      112859.6     
    670000   1.0723415      292.7704      -1274.0423      112991.54    
    671000   1.0873761      312.43819      629.99075      113067.71    
    672000   1.0824188      296.53879     -18.29117       112859.65    
    673000   1.0895215      296.49034      805.51768      112989.14    
    674000   1.071516       301.4836      -54.954301      112980.78    
    675000   1.0836931      297.80143      343.24926      112925.24    
    676000   1.0751916      295.57485      420.71982      112871.21    
    677000   1.0713237      297.63242      84.251314      112958.88    
    678000   1.0720263      293.04917      13.101764      112868.64    
    679000   1.0859839      293.67154      63.79392       112893.9     
    680000   1.0778776      294.2998       220.58523      112880.89    
    681000   1.0798921      301.53835     -208.21847      112915.61    
    682000   1.0830584      298.69186     -545.05984      113006.61    
    683000   1.0844973      300.55934      6.5952817      112944.12    
[...]
   7042000   1.0390864      295.17973     -420.88055      110960.25    
   7043000   1.0345829      306.67473     -575.3686       111049.7     
   7044000   1.0450474      291.60183      903.00811      110953.34    
   7045000   1.0427967      290.98043      633.94818      110975.15    
   7046000   1.0360414      306.3319      -424.51923      111045.69    
   7047000   1.0419053      313.43559     -119.78872      111098.8     
   7048000   1.0428421      306.73625      390.38937      111055.19    
   7049000   1.0337413      278.52279     -1254.401       110884.63    
   7050000   1.0450605      303.41547      513.10617      111028.27    
   7051000   1.038351       303.87532      276.45764      111058.33    
   7052000   1.0405221      295.01047     -21.026117      110998.67    
   7053000   1.0410873      299.59833      563.62921      111013.51    
   7054000   1.0405099      282.26997     -178.11222      110858.53    
   7055000   1.0417363      306.27959     -1.2507716      111046.57    
   7056000   1.0400421      299.85521      157.80315      111000.44    
   7057000   1.0418314      291.48383      249.35788      110978.83    
   7058000   1.0405119      299.4624       237.29015      111008.5     
   7059000   1.0405367      291.60857      374.92119      110978.53    
   7060000   1.0376864      295.93207     -273.93965      110996.78    
   7061000   1.0433321      286.42922      250.37524      110916.42    
   7062000   1.0371211      292.68907     -586.80904      110995.33    
   7063000   1.0361694      294.4072      -435.97643      111006.41    
   7064000   1.0483054      300.87428      1135.5113      111002.56    
   7065000   1.0389949      297.36607      133.73909      111003.56    
   7066000   1.0350436      283.16228     -513.7336       110895.12    
   7067000   1.0460148      287.02575      781.1015       110915.54    
   7068000   1.0410245      274.45883     -53.481833      110846.97    
   7069000   1.0401086      297.38055      57.60603       110980.71    
   7070000   1.0418953      298.75208     -289.19256      110970.24    
   7071000   1.0395369      284.76393      32.766203      110892.41    
   7072000   1.0379887      298.09569     -187.77287      110991.32    
   7073000   1.0418542      300.64474      152.09713      111036.16    
   7074000   1.0392172      282.6794      -745.63457      110900.89    
   7075000   1.0381632      279.86762     -394.79904      110888.14    
   7076000   1.0396281      308.139       -399.02397      111062.87    
   7077000   1.0405168      305.69604     -203.48671      111044.64    
   7078000   1.0398431      290.80352      460.19314      110946.98    
   7079000   1.0443682      297.27463      595.47625      111015.31    
   7080000   1.0354726      315.47436     -37.809285      111128.83    
   7081000   1.0423448      296.0533       598.10055      111022.75    
   7082000   1.0438802      302.8458       402.12616      111053.94    
   7083000   1.034602       314.11598     -78.046486      111152.9     
   7084000   1.0446768      293.93503      530.65065      110983.7     
   7085000   1.0396695      280.93614     -82.542404      110886.32    
   7086000   1.0381808      297.63327     -151.62364      111000.43    
   7087000   1.0425932      297.2103       169.11723      110990.08    
   7088000   1.041012       292.89213     -135.01515      110972.89    
   7089000   1.0368535      303.70581     -321.94712      111051.92    
   7090000   1.0464033      298.37003      117.4703       110997.53    
   7091000   1.038302       283.13684     -706.75254      110888.07    
   7092000   1.035852       299.06978     -263.17732      111020.37    
   7093000   1.0464555      293.19441      645.48965      111006.21    
   7094000   1.0369023      294.9531      -242.52529      110982.12    
   7095000   1.0403243      296.94638      82.455684      111013.53    
   7096000   1.0498522      293.36326      510.60177      110974.93    
   7097000   1.0398384      310.02074     -243.43769      111076.62    
   7098000   1.0380219      310.82869     -464.95391      111110.15    
   7099000   1.0485753      292.14886      667.13678      110962.11    
   7100000   1.0423774      281.96279     -373.00863      110910.57    
   7101000   1.0384741      295.96268     -468.07777      111004.57    
   7102000   1.0466019      298.16982      655.14882      111002.92    
   7103000   1.0405229      316.60094     -69.387308      111167.17    
   7104000   1.0361465      291.85978      2.947157       110985.03    
   7105000   1.0487362      287.55773      548.2672       110942.55    
   7106000   1.0451058      308.30531      569.57745      111085.08    
   7107000   1.0362714      289.83677     -355.12917      110991.47    
   7108000   1.0487864      290.15007      428.56129      110993.27    
   7109000   1.0382918      289.06566     -102.61899      110972.23    
   7110000   1.0378392      291.99479     -177.58761      110995.3     
   7111000   1.0490987      313.38425      1083.9295      111115.43    
   7112000   1.0384453      295.26361     -43.492796      111011.75    
   7113000   1.038094       321.15445     -235.32886      111168.7     
   7114000   1.0423017      308.08698      266.36387      111084.16    
   7115000   1.0396655      306.52255     -122.07028      111069.48    
   7116000   1.043292       292.78311      290.21352      110973.37    
   7117000   1.0369463      303.37211      303.8809       111050.46    
   7118000   1.0416261      294.77912      170.41787      111011.36    
   7119000   1.0429255      291.4233       335.89682      110955.65    
   7120000   1.0323354      310.31744     -961.88557      111082.35    
   7121000   1.0434075      299.74691      238.38152      111035.95    
   7122000   1.0401074      281.23095     -234.136        110906.93    
   7123000   1.0348573      286.70951     -649.05228      110948.07    
   7124000   1.0434017      275.99089      362.86455      110878.84    
   7125000   1.0387272      298.73097     -136.14261      111017.11    
   7126000   1.0347612      291.89078     -923.68416      111004.99    
   7127000   1.0430065      294.24744     -250.71818      110966.49    
   7128000   1.0388479      297.4445      -382.07682      111017.57    
   7129000   1.044384       296.23623     -419.67468      110992.55    
   7130000   1.041599       311.56122      200.12509      111112.79    
   7131000   1.0370099      311.50519     -233.90993      111088.15    
   7132000   1.0429723      297.46076      122.87908      111003.78    
   7133000   1.0407701      294.03473      13.594864      110986.6     
   7134000   1.0416912      295.30993      273.78004      110998.68    
   7135000   1.0387428      294.04619     -243.00355      111001.56    
   7136000   1.0393968      295.92047     -319.60965      110984.89    
   7137000   1.0426874      304.31552      346.36091      111070.65    
   7138000   1.0378678      306.84934     -119.4378       111073.11    
   7139000   1.0399185      294.85053     -272.43936      111026.06    
   7140000   1.045585       301.69009      360.89343      111032.18    
   7141000   1.0363443      299.51203     -263.33519      110997.63    
   7142000   1.0416605      307.32564      355.4849       111064.74    
   7143000   1.0467795      290.32144      104.86991      110952.82    
   7144000   1.0383518      289.15946     -162.42704      110973.87    
   7145000   1.0392919      301.84828     -240.53154      111045.42    
   7146000   1.044263       313.61462      178.44785      111106.56    
   7147000   1.0394974      312.95447     -218.73308      111097.94    
   7148000   1.0351878      304.98408     -821.11381      111085.2     
   7149000   1.0426223      300.15105     -33.247538      111033.14    
   7150000   1.0442224      299.01767      575.96706      111004.27    
   7151000   1.0380908      306.82057     -199.58704      111088.58    
   7152000   1.0420437      285.06078      142.38053      110934.12    
   7153000   1.043885       288.73307      141.89356      110942.57    
   7154000   1.03609        299.84224     -98.764548      111038.42    
   7155000   1.0424344      282.98574      226.91973      110915.13    
   7156000   1.0438878      300.67464      56.846213      111037.39    
   7157000   1.0370606      300.6487      -419.67482      111042.89    
   7158000   1.0417597      319.57186      334.59866      111147.08    
   7159000   1.0458292      290.51957      306.4684       110952.34    
   7160000   1.038618       287.26661      110.8408       110953.25    
   7161000   1.0440953      293.21876      299.18645      110973.86    
   7162000   1.0413976      310.75611      227.77936      111124.61    
   7163000   1.040312       287.50931     -207.58845      110964.33    
   7164000   1.0445507      294.7979      -270.12048      110971.98    
   7165000   1.038976       306.11447      127.68595      111084.28    
   7166000   1.0423533      291.25291     -32.288242      110954.35    
   7167000   1.0458125      307.10985      100.82814      111063.08    
   7168000   1.0400487      294.6645      -453.24551      111003.65    
   7169000   1.0438984      293.89407     -423.89088      110978.53    
   7170000   1.0431819      290.80641      232.43624      110981.46    
   7171000   1.0440083      297.53209      28.096557      111027.57    
   7172000   1.0440649      296.33185      459.17218      111008.64    
   7173000   1.0374731      295.77547     -612.97432      110999.7     
   7174000   1.0457247      283.75138      97.752988      110903.85    
   7175000   1.0412835      301.16359      52.789007      111067.66    
   7176000   1.0384675      287.2586      -553.63384      110978.72    
   7177000   1.04407        299.89869      298.09932      111008.68    
   7178000   1.0387259      308.9469      -383.3762       111093.8     
   7179000   1.0411225      317.29614      100.40447      111153.07    
   7180000   1.0410568      302.21531      19.035875      111043.57    
   7181000   1.0407978      273.17009     -73.783104      110862       
   7182000   1.0435577      299.72965     -516.9261       111034.49    
   7183000   1.0391845      297.25427     -241.08912      111033.09    
   7184000   1.0422818      306.91102      103.71981      111097.25    
   7185000   1.0462488      304.08602      895.36604      111103.6     
   7186000   1.0387273      284.22928     -461.91699      110943.71    
   7187000   1.0435553      305.77158      619.97676      111070.94    
   7188000   1.0431247      299.27354      297.8065       111028.41    
   7189000   1.0376746      292.02989     -707.37722      110978.17    
   7190000   1.0366203      278.0502      -561.22894      110904.17    
   7191000   1.042447       292.24913     -188.21066      110933.49    
   7192000   1.0423015      286.12908      116.10957      110949.68    
   7193000   1.0388199      308.79457     -144.19169      111118.91    
   7194000   1.0367188      292.14779     -164.97278      110992.7     
   7195000   1.0438631      302.43018      291.80712      111037.67    
   7196000   1.0396714      290.44012     -246.96168      110983.23    
   7197000   1.0413008      292.16128      64.04307       110982.73    
   7198000   1.0383908      283.06411     -239.80987      110920.98    
   7199000   1.041881       277.58044     -7.0117239      110878.3     
   7200000   1.0394842      302.35775      185.88245      111051.41    
   7201000   1.0401342      299.85699     -603.20194      111038.65    
   7202000   1.0365476      302.99119     -555.76711      111065.6     
   7203000   1.0417177      304.57712      164.21781      111060.23    
   7204000   1.0433658      301.45622      418.17798      111063.8     
   7205000   1.0377989      313.07644      299.56255      111121.67    
   7206000   1.0403616      301.40865      137.47009      111062.27    
   7207000   1.0410022      306.50623     -291.66744      111097.76    
   7208000   1.039818       301.75839     -20.437556      111048.56    
   7209000   1.0416515      294.1152      -46.094419      110965.54    
   7210000   1.0405155      309.79164     -197.47321      111088.43    
   7211000   1.0366539      319.39909     -486.86396      111189.19    
   7212000   1.0396277      302.41193      119.06341      111069.64    
   7213000   1.0437737      295.86747      625.83205      111006.39    
   7214000   1.0349294      300.78224      253.74669      111049.35    
   7215000   1.0413762      300.03812      80.928886      111049.12    
   7216000   1.0422127      296.72746      83.213528      111012.68    
   7217000   1.0329538      278.14499     -780.37028      110919.37    
   7218000   1.0422278      293.31197     -176.44865      110996.09    
   7219000   1.0404741      311.82137      197.28137      111105.02    
   7220000   1.038447       295.40722     -41.967844      110990.65    
   7221000   1.0471087      294.49385      861.262        110969.64    
   7222000   1.0396776      297.10614     -422.64983      111003.02    
   7223000   1.039602       315.37209      347.41933      111153.85    
   7224000   1.0469617      297.11327      776.26577      111010.66    
   7225000   1.034271       287.94007     -750.04178      110954.08    
   7226000   1.0437748      296.58562      206.15809      111017.16    
   7227000   1.0384751      289.94061     -357.80334      111015.59    
   7228000   1.035608       294.77418     -459.52804      110987.28    
   7229000   1.0378399      292.70312     -323.33184      110999.81    
   7230000   1.0414689      300.43372      8.0229104      111034.26    
   7231000   1.0377579      302.25532     -382.46156      111057.77    
   7232000   1.0407567      284.61518     -223.1672       110938.19    
   7233000   1.0412451      292.95807     -210.49366      110999.51    
   7234000   1.0351048      302.04437     -352.38439      111054.16    
   7235000   1.0439021      304.49932      270.25806      111060.77    
   7236000   1.0367729      308.10727     -180.7297       111095.78    
   7237000   1.038538       301.26118     -209.43783      111044.84    
   7238000   1.0428276      295.35778      359.58645      111015.63    
   7239000   1.0403204      294.47175      19.303386      111017.68    
   7240000   1.0365169      302.47691     -1222.6531      111082.49    
   7241000   1.0423773      308.65694     -290.43272      111111.76    
   7242000   1.0403041      305.05891      0.26202135     111077.45    
   7243000   1.0420512      297.36159      326.03109      111020.37    
   7244000   1.042997       309.55108     -34.512607      111100.53    
   7245000   1.0449933      284.20491      59.827305      110920.35    
   7246000   1.0406859      290.13315     -256.7925       110985.67    
   7247000   1.0400845      305.74677     -512.04509      111115.98    
   7248000   1.039451       292.7643      -457.99517      111006.92    
   7249000   1.0416228      303.40273      149.39492      111077.95    
   7250000   1.0443861      288.66437      562.61976      110972.06    
   7251000   1.0354277      295.91211     -303.12434      111020.54    
   7252000   1.0450847      304.36635      11.541081      111034.39    
   7253000   1.0439092      296.36984      65.267113      111009.4     
   7254000   1.0345506      285.56332     -633.82361      110993.81    
   7255000   1.0408666      295.89075     -510.44584      111009.25    
   7256000   1.0440148      308.86306      395.80947      111098.36    
   7257000   1.0384982      298.51046     -183.41567      111026.64    
   7258000   1.0404172      300.83779     -352.8068       111030.76    
   7259000   1.042157       298.00069      49.241548      111023.31    
   7260000   1.0403984      289.18668      295.0593       110968.91    
   7261000   1.0391811      286.30877     -38.200556      110955.27    
   7262000   1.0427469      303.46391      354.91662      111073.41    
   7263000   1.0381913      284.95085     -374.68041      110946.73    
   7264000   1.045268       292.65418      446.28403      110980.22    
   7265000   1.0397621      289.49395     -117.41912      110992.24    
   7266000   1.0350013      301.68615     -286.13398      111086.18    
   7267000   1.0413874      290.88949      391.67827      110985.73    
   7268000   1.0437646      309.04093      183.54693      111083.91    
   7269000   1.0359819      305.13122     -664.85013      111076.51    
   7270000   1.0430983      313.08584      136.59365      111120.11    
   7271000   1.0386315      322.93418      107.09502      111229.04    
   7272000   1.0397768      299.85715     -348.30428      111032.44    
   7273000   1.0417187      281.66124      262.24896      110914.69    
   7274000   1.045123       290.61825      317.18419      110970.63    
   7275000   1.036334       294.94639      306.6992       111028.58    
   7276000   1.0446061      305.5649       625.68423      111084.29    
   7277000   1.0388123      290.67626     -509.45385      111010.2     
   7278000   1.0368217      295.94905     -337.81573      111018.24    
   7279000   1.0414321      299.81824     -139.98601      111102.58    
   7280000   1.0377798      286.81622     -471.82885      110985.22    
   7281000   1.0392596      301.57054      29.408942      111060.04    
   7282000   1.0452751      288.86988      292.40029      111001.21    
   7283000   1.0338151      296.73052     -479.9269       111037.33    
   7284000   1.0444316      285.31916      237.14579      110932.79    
   7285000   1.0399429      301.03951      264.51106      111040.03    
   7286000   1.039518       285.95079     -239.54708      110983.22    
   7287000   1.0427624      300.68753      122.19054      111065.56    
   7288000   1.0409306      301.47654     -85.467871      111027.74    
   7289000   1.0385253      305.53818     -494.9212       111095.8     
   7290000   1.0419407      314.76895      510.35088      111137.8     
   7291000   1.0417088      293.68284     -93.397359      111041.49    
   7292000   1.0426975      311.41297      343.42303      111103.2     
   7293000   1.0403823      314.01705      39.965434      111137.97    
   7294000   1.040538       323.75281      239.47919      111201.2     
   7295000   1.0436835      288.08547     -89.151081      110969.92    
   7296000   1.0358494      300.74941     -481.94888      111057.04    
   7297000   1.0467701      295.74454      545.22233      111003.96    
   7298000   1.0398263      295.89622      63.910802      111028.36    
   7299000   1.0403187      288.89748     -230.4941       110995.15    
   7300000   1.0454307      297.71848      645.26105      111037.24    
   7301000   1.0411692      298.79287      1.4391416      111039.83    
   7302000   1.0406749      306.62301     -408.55111      111086.55    
   7303000   1.0424597      294.7871      -110.78805      111009.93    
   7304000   1.0410893      288.46338     -55.529046      111000.16    
   7305000   1.0438216      295.60899      194.95021      111032.1     
   7306000   1.0377767      280.53463     -0.11264975     110941.03    
   7307000   1.04356        286.40624      391.22728      110961.06    
   7308000   1.0428116      295.45234     -64.280248      111012.4     
   7309000   1.0396179      289.9255      -411.72619      110976.97    
   7310000   1.0447519      302.32517      555.12376      111068.84    
   7311000   1.0425237      290.29703      533.5501       110987.31    
   7312000   1.0402723      299.0684       218.45166      111047.99    
   7313000   1.0426871      299.13724     -53.759016      111034.85    
   7314000   1.0462907      305.3185      -149.62789      111086.44    
   7315000   1.0386855      301.09916     -9.7256464      111056.51    
ERROR on proc 9: Bond atoms 1813 1814 missing on proc 9 at step 7315375 (../ntopo_bond_all.cpp:59)
Last command: run ${Ninpt}
Abort(1) on node 9 (rank 9 in comm 0): application called MPI_Abort(MPI_COMM_WORLD, 1) - process 9
