created by fftool

3162 atoms
2108 bonds
1108 angles
6 atom types
3 bond types
2 angle types
0.000000 31.689281 xlo xhi
0.000000 31.689281 ylo yhi
0.000000 31.689281 zlo zhi

Atoms

      1       1    1  -1.112800  2.925162e+01  2.999967e+01  1.679965e+01  # Ow water
      2       1    2   0.556400  3.018924e+01  3.018865e+01  1.683685e+01  # Hw water
      3       1    2   0.556400  2.900431e+01  3.018929e+01  1.589460e+01  # Hw water
      4       2    1  -1.112800  4.329311e+00  4.162611e+00  2.114894e+00  # Ow water
      5       2    2   0.556400  4.676748e+00  3.463781e+00  1.560679e+00  # Hw water
      6       2    2   0.556400  3.949295e+00  4.790061e+00  1.499978e+00  # Hw water
      7       3    1  -1.112800  2.575549e+01  1.688777e+01  2.777945e+01  # Ow water
      8       3    2   0.556400  2.604640e+01  1.639819e+01  2.701009e+01  # Hw water
      9       3    2   0.556400  2.482480e+01  1.704850e+01  2.762385e+01  # Hw water
     10       4    1  -1.112800  1.536899e+01  1.704424e+00  7.475281e+00  # Ow water
     11       4    2   0.556400  1.621441e+01  1.503824e+00  7.073713e+00  # Hw water
     12       4    2   0.556400  1.483754e+01  2.047723e+00  6.756993e+00  # Hw water
     13       5    1  -1.112800  9.041822e+00  6.637934e+00  1.706262e+00  # Ow water
     14       5    2   0.556400  9.785724e+00  7.211905e+00  1.523513e+00  # Hw water
     15       5    2   0.556400  8.272616e+00  7.168968e+00  1.499979e+00  # Hw water
     16       6    1  -1.112800  7.721333e+00  8.178496e+00  1.172742e+01  # Ow water
     17       6    2   0.556400  8.486027e+00  8.300051e+00  1.116467e+01  # Hw water
     18       6    2   0.556400  6.981996e+00  8.133044e+00  1.112117e+01  # Hw water
     19       7    1  -1.112800  1.473650e+01  3.537259e+00  1.731075e+01  # Ow water
     20       7    2   0.556400  1.558869e+01  3.973122e+00  1.730528e+01  # Hw water
     21       7    2   0.556400  1.417148e+01  4.108397e+00  1.679039e+01  # Hw water
     22       8    1  -1.112800  6.810136e+00  6.700479e+00  1.897456e+01  # Ow water
     23       8    2   0.556400  6.336676e+00  6.174866e+00  1.832974e+01  # Hw water
     24       8    2   0.556400  7.720015e+00  6.413670e+00  1.889652e+01  # Hw water
     25       9    1  -1.112800  8.607935e+00  2.718361e+01  2.934784e+01  # Ow water
     26       9    2   0.556400  8.747979e+00  2.675230e+01  3.019080e+01  # Hw water
     27       9    2   0.556400  8.055662e+00  2.793800e+01  2.955306e+01  # Hw water
     28      10    1  -1.112800  5.220657e+00  4.840311e+00  1.111897e+01  # Ow water
     29      10    2   0.556400  5.417961e+00  5.030817e+00  1.203604e+01  # Hw water
     30      10    2   0.556400  4.903385e+00  5.670803e+00  1.076422e+01  # Hw water
     31      11    1  -1.112800  4.804420e+00  2.577574e+01  1.861131e+01  # Ow water
     32      11    2   0.556400  4.286530e+00  2.565549e+01  1.940728e+01  # Hw water
     33      11    2   0.556400  4.422605e+00  2.654613e+01  1.819067e+01  # Hw water
     34      12    1  -1.112800  1.252647e+01  1.445651e+01  2.771219e+01  # Ow water
     35      12    2   0.556400  1.317597e+01  1.505404e+01  2.734160e+01  # Hw water
     36      12    2   0.556400  1.192491e+01  1.427769e+01  2.698944e+01  # Hw water
     37      13    1  -1.112800  1.783440e+01  2.145686e+00  2.779722e+01  # Ow water
     38      13    2   0.556400  1.739693e+01  2.990258e+00  2.790468e+01  # Hw water
     39      13    2   0.556400  1.717600e+01  1.500009e+00  2.805381e+01  # Hw water
     40      14    1  -1.112800  9.773065e+00  2.758222e+01  7.488977e+00  # Ow water
     41      14    2   0.556400  1.042142e+01  2.785142e+01  8.139664e+00  # Hw water
     42      14    2   0.556400  1.022830e+01  2.765920e+01  6.650487e+00  # Hw water
     43      15    1  -1.112800  2.202506e+01  2.203500e+01  1.327483e+01  # Ow water
     44      15    2   0.556400  2.162916e+01  2.232779e+01  1.245400e+01  # Hw water
     45      15    2   0.556400  2.284405e+01  2.252679e+01  1.333510e+01  # Hw water
     46      16    1  -1.112800  2.316136e+01  1.137221e+01  1.419080e+01  # Ow water
     47      16    2   0.556400  2.410183e+01  1.119494e+01  1.420871e+01  # Hw water
     48      16    2   0.556400  2.308803e+01  1.230115e+01  1.440973e+01  # Hw water
     49      17    1  -1.112800  2.436193e+01  2.658253e+01  6.128352e+00  # Ow water
     50      17    2   0.556400  2.370983e+01  2.590412e+01  5.952977e+00  # Hw water
     51      17    2   0.556400  2.503310e+01  2.644901e+01  5.459067e+00  # Hw water
     52      18    1  -1.112800  2.587719e+01  5.062783e+00  5.128681e+00  # Ow water
     53      18    2   0.556400  2.536896e+01  4.581808e+00  5.781825e+00  # Hw water
     54      18    2   0.556400  2.593085e+01  5.953623e+00  5.474737e+00  # Hw water
     55      19    1  -1.112800  1.992869e+01  4.965855e+00  2.307824e+01  # Ow water
     56      19    2   0.556400  2.084010e+01  5.228766e+00  2.295000e+01  # Hw water
     57      19    2   0.556400  1.982014e+01  4.196029e+00  2.251984e+01  # Hw water
     58      20    1  -1.112800  1.651156e+01  1.850207e+01  2.547062e+01  # Ow water
     59      20    2   0.556400  1.579651e+01  1.788443e+01  2.562373e+01  # Hw water
     60      20    2   0.556400  1.625944e+01  1.896828e+01  2.467355e+01  # Hw water
     61      21    1  -1.112800  1.559253e+01  2.816375e+01  2.518104e+01  # Ow water
     62      21    2   0.556400  1.490876e+01  2.759435e+01  2.553385e+01  # Hw water
     63      21    2   0.556400  1.526097e+01  2.843493e+01  2.432502e+01  # Hw water
     64      22    1  -1.112800  2.145244e+01  2.539550e+01  8.347343e+00  # Ow water
     65      22    2   0.556400  2.217710e+01  2.537870e+01  8.972495e+00  # Hw water
     66      22    2   0.556400  2.067905e+01  2.557723e+01  8.881260e+00  # Hw water
     67      23    1  -1.112800  2.959423e+01  2.734989e+01  1.525465e+01  # Ow water
     68      23    2   0.556400  3.016573e+01  2.674016e+01  1.478791e+01  # Hw water
     69      23    2   0.556400  3.018916e+01  2.800512e+01  1.561930e+01  # Hw water
     70      24    1  -1.112800  2.213433e+01  1.555211e+01  1.344112e+01  # Ow water
     71      24    2   0.556400  2.281069e+01  1.487677e+01  1.349289e+01  # Hw water
     72      24    2   0.556400  2.183280e+01  1.552068e+01  1.253321e+01  # Hw water
     73      25    1  -1.112800  1.686048e+01  1.539324e+00  4.146276e+00  # Ow water
     74      25    2   0.556400  1.749705e+01  1.500030e+00  4.860038e+00  # Hw water
     75      25    2   0.556400  1.600889e+01  1.507434e+00  4.582176e+00  # Hw water
     76      26    1  -1.112800  7.154057e+00  3.620601e+00  6.023242e+00  # Ow water
     77      26    2   0.556400  7.110994e+00  4.446459e+00  6.505250e+00  # Hw water
     78      26    2   0.556400  6.344463e+00  3.165275e+00  6.254469e+00  # Hw water
     79      27    1  -1.112800  2.304236e+01  1.520375e+00  2.964078e+01  # Ow water
     80      27    2   0.556400  2.353875e+01  2.274848e+00  2.995794e+01  # Hw water
     81      27    2   0.556400  2.225820e+01  1.501209e+00  3.018938e+01  # Hw water
     82      28    1  -1.112800  1.070281e+01  1.723729e+01  1.869350e+01  # Ow water
     83      28    2   0.556400  1.054179e+01  1.633621e+01  1.897342e+01  # Hw water
     84      28    2   0.556400  1.084540e+01  1.771972e+01  1.950785e+01  # Hw water
     85      29    1  -1.112800  1.788700e+01  9.324685e+00  2.731175e+01  # Ow water
     86      29    2   0.556400  1.784787e+01  8.433747e+00  2.696401e+01  # Hw water
     87      29    2   0.556400  1.772097e+01  9.885552e+00  2.655407e+01  # Hw water
     88      30    1  -1.112800  1.226238e+01  2.709525e+01  4.518322e+00  # Ow water
     89      30    2   0.556400  1.213114e+01  2.803006e+01  4.359804e+00  # Hw water
     90      30    2   0.556400  1.318060e+01  2.702259e+01  4.778752e+00  # Hw water
     91      31    1  -1.112800  4.917935e+00  1.841519e+01  2.612105e+01  # Ow water
     92      31    2   0.556400  5.279192e+00  1.824302e+01  2.525153e+01  # Hw water
     93      31    2   0.556400  5.417582e+00  1.916489e+01  2.644439e+01  # Hw water
     94      32    1  -1.112800  2.798726e+01  3.840193e+00  2.136023e+01  # Ow water
     95      32    2   0.556400  2.760755e+01  3.995728e+00  2.049544e+01  # Hw water
     96      32    2   0.556400  2.725891e+01  3.510019e+00  2.188628e+01  # Hw water
     97      33    1  -1.112800  1.433811e+01  8.869841e+00  2.607093e+01  # Ow water
     98      33    2   0.556400  1.403835e+01  9.777572e+00  2.611994e+01  # Hw water
     99      33    2   0.556400  1.525754e+01  8.906149e+00  2.633467e+01  # Hw water
    100      34    1  -1.112800  1.892938e+01  4.520498e+00  1.459698e+01  # Ow water
    101      34    2   0.556400  1.908686e+01  4.054362e+00  1.377592e+01  # Hw water
    102      34    2   0.556400  1.947569e+01  5.304159e+00  1.453665e+01  # Hw water
    103      35    1  -1.112800  2.406694e+01  2.621724e+01  2.929986e+01  # Ow water
    104      35    2   0.556400  2.438229e+01  2.640426e+01  3.018406e+01  # Hw water
    105      35    2   0.556400  2.482482e+01  2.584585e+01  2.884830e+01  # Hw water
    106      36    1  -1.112800  5.680497e+00  1.285689e+01  1.295702e+01  # Ow water
    107      36    2   0.556400  6.426390e+00  1.315121e+01  1.347975e+01  # Hw water
    108      36    2   0.556400  5.825095e+00  1.324366e+01  1.209346e+01  # Hw water
    109      37    1  -1.112800  4.084769e+00  6.622989e+00  1.970425e+01  # Ow water
    110      37    2   0.556400  4.156825e+00  7.223001e+00  1.896194e+01  # Hw water
    111      37    2   0.556400  3.710464e+00  5.824528e+00  1.933198e+01  # Hw water
    112      38    1  -1.112800  5.241358e+00  2.333005e+01  6.336035e+00  # Ow water
    113      38    2   0.556400  5.631321e+00  2.327485e+01  7.208452e+00  # Hw water
    114      38    2   0.556400  5.355650e+00  2.424513e+01  6.079531e+00  # Hw water
    115      39    1  -1.112800  1.545342e+01  2.872651e+01  9.971316e+00  # Ow water
    116      39    2   0.556400  1.452407e+01  2.867255e+01  1.019408e+01  # Hw water
    117      39    2   0.556400  1.576701e+01  2.782403e+01  1.002976e+01  # Hw water
    118      40    1  -1.112800  7.388343e+00  1.631707e+01  7.691351e+00  # Ow water
    119      40    2   0.556400  7.595994e+00  1.632403e+01  8.625729e+00  # Hw water
    120      40    2   0.556400  6.740644e+00  1.701366e+01  7.584254e+00  # Hw water
    121      41    1  -1.112800  1.897564e+01  8.328383e+00  1.629900e+01  # Ow water
    122      41    2   0.556400  1.825275e+01  8.599034e+00  1.573295e+01  # Hw water
    123      41    2   0.556400  1.905022e+01  7.384525e+00  1.615829e+01  # Hw water
    124      42    1  -1.112800  1.694665e+00  8.767280e+00  2.839913e+01  # Ow water
    125      42    2   0.556400  1.500007e+00  9.702487e+00  2.833811e+01  # Hw water
    126      42    2   0.556400  1.499981e+00  8.424218e+00  2.752699e+01  # Hw water
    127      43    1  -1.112800  3.018940e+01  1.716774e+01  2.457458e+01  # Ow water
    128      43    2   0.556400  2.978217e+01  1.757536e+01  2.533894e+01  # Hw water
    129      43    2   0.556400  2.994619e+01  1.624407e+01  2.463705e+01  # Hw water
    130      44    1  -1.112800  1.324790e+01  2.375435e+01  1.676343e+01  # Ow water
    131      44    2   0.556400  1.271479e+01  2.312274e+01  1.724622e+01  # Hw water
    132      44    2   0.556400  1.381445e+01  2.414735e+01  1.742736e+01  # Hw water
    133      45    1  -1.112800  5.683771e+00  1.868024e+01  1.245023e+01  # Ow water
    134      45    2   0.556400  6.112892e+00  1.907137e+01  1.168924e+01  # Hw water
    135      45    2   0.556400  6.369527e+00  1.863715e+01  1.311665e+01  # Hw water
    136      46    1  -1.112800  1.154312e+01  4.830321e+00  8.786680e+00  # Ow water
    137      46    2   0.556400  1.112889e+01  5.634392e+00  8.473447e+00  # Hw water
    138      46    2   0.556400  1.149294e+01  4.229241e+00  8.043435e+00  # Hw water
    139      47    1  -1.112800  2.121266e+01  1.912802e+01  1.420899e+01  # Ow water
    140      47    2   0.556400  2.110241e+01  1.818778e+01  1.406746e+01  # Hw water
    141      47    2   0.556400  2.092871e+01  1.952927e+01  1.338765e+01  # Hw water
    142      48    1  -1.112800  1.631500e+00  2.256508e+01  2.334042e+01  # Ow water
    143      48    2   0.556400  1.499973e+00  2.282909e+01  2.242981e+01  # Hw water
    144      48    2   0.556400  1.499814e+00  2.336806e+01  2.384452e+01  # Hw water
    145      49    1  -1.112800  1.336456e+01  5.564470e+00  1.120520e+01  # Ow water
    146      49    2   0.556400  1.337269e+01  6.125493e+00  1.042969e+01  # Hw water
    147      49    2   0.556400  1.245168e+01  5.290512e+00  1.129366e+01  # Hw water
    148      50    1  -1.112800  6.436753e+00  2.984963e+01  5.842852e+00  # Ow water
    149      50    2   0.556400  6.402415e+00  3.018924e+01  4.948583e+00  # Hw water
    150      50    2   0.556400  7.267401e+00  3.017380e+01  6.190942e+00  # Hw water
    151      51    1  -1.112800  1.634413e+00  7.312471e+00  2.391430e+01  # Ow water
    152      51    2   0.556400  1.500157e+00  6.463067e+00  2.433467e+01  # Hw water
    153      51    2   0.556400  1.499777e+00  7.950841e+00  2.461471e+01  # Hw water
    154      52    1  -1.112800  6.144911e+00  3.009924e+01  2.530234e+01  # Ow water
    155      52    2   0.556400  6.951822e+00  3.017847e+01  2.479357e+01  # Hw water
    156      52    2   0.556400  5.964734e+00  2.915935e+01  2.532172e+01  # Hw water
    157      53    1  -1.112800  1.982921e+00  1.812478e+01  1.710059e+01  # Ow water
    158      53    2   0.556400  2.317927e+00  1.893958e+01  1.747490e+01  # Hw water
    159      53    2   0.556400  1.500588e+00  1.771205e+01  1.781700e+01  # Hw water
    160      54    1  -1.112800  2.370799e+01  8.339343e+00  3.718129e+00  # Ow water
    161      54    2   0.556400  2.427341e+01  9.078154e+00  3.492984e+00  # Hw water
    162      54    2   0.556400  2.431282e+01  7.645952e+00  3.982001e+00  # Hw water
    163      55    1  -1.112800  2.635534e+01  1.569270e+01  1.387511e+01  # Ow water
    164      55    2   0.556400  2.604539e+01  1.510203e+01  1.318862e+01  # Hw water
    165      55    2   0.556400  2.730733e+01  1.559350e+01  1.386527e+01  # Hw water
    166      56    1  -1.112800  8.590311e+00  3.922821e+00  9.124825e+00  # Ow water
    167      56    2   0.556400  9.433101e+00  3.582424e+00  9.424930e+00  # Hw water
    168      56    2   0.556400  8.815839e+00  4.551829e+00  8.439468e+00  # Hw water
    169      57    1  -1.112800  1.489292e+01  2.576773e+01  1.172538e+01  # Ow water
    170      57    2   0.556400  1.438203e+01  2.651863e+01  1.202764e+01  # Hw water
    171      57    2   0.556400  1.577294e+01  2.592234e+01  1.206873e+01  # Hw water
    172      58    1  -1.112800  1.421318e+01  2.675930e+01  2.267151e+01  # Ow water
    173      58    2   0.556400  1.387396e+01  2.651224e+01  2.353181e+01  # Hw water
    174      58    2   0.556400  1.365454e+01  2.748479e+01  2.239256e+01  # Hw water
    175      59    1  -1.112800  5.829922e+00  2.653205e+01  1.694589e+00  # Ow water
    176      59    2   0.556400  6.353451e+00  2.730941e+01  1.499977e+00  # Hw water
    177      59    2   0.556400  4.930031e+00  2.679388e+01  1.499978e+00  # Hw water
    178      60    1  -1.112800  4.188673e+00  2.980331e+01  2.281748e+01  # Ow water
    179      60    2   0.556400  5.027810e+00  3.018992e+01  2.306769e+01  # Hw water
    180      60    2   0.556400  3.557458e+00  3.018395e+01  2.342814e+01  # Hw water
    181      61    1  -1.112800  1.256191e+01  9.670042e+00  2.295971e+01  # Ow water
    182      61    2   0.556400  1.329194e+01  1.018670e+01  2.261859e+01  # Hw water
    183      61    2   0.556400  1.293247e+01  9.191406e+00  2.370121e+01  # Hw water
    184      62    1  -1.112800  1.779556e+01  2.609383e+01  7.568795e+00  # Ow water
    185      62    2   0.556400  1.811396e+01  2.524567e+01  7.877774e+00  # Hw water
    186      62    2   0.556400  1.730328e+01  2.644941e+01  8.308691e+00  # Hw water
    187      63    1  -1.112800  1.293151e+01  1.413784e+01  8.951746e+00  # Ow water
    188      63    2   0.556400  1.343753e+01  1.333371e+01  8.835365e+00  # Hw water
    189      63    2   0.556400  1.216052e+01  1.401861e+01  8.397146e+00  # Hw water
    190      64    1  -1.112800  2.082465e+01  2.596284e+01  1.906090e+01  # Ow water
    191      64    2   0.556400  2.160116e+01  2.541597e+01  1.918001e+01  # Hw water
    192      64    2   0.556400  2.036149e+01  2.590731e+01  1.989674e+01  # Hw water
    193      65    1  -1.112800  1.963140e+00  2.711663e+01  2.707873e+01  # Ow water
    194      65    2   0.556400  1.830856e+00  2.762007e+01  2.627544e+01  # Hw water
    195      65    2   0.556400  1.484418e+00  2.760417e+01  2.774908e+01  # Hw water
    196      66    1  -1.112800  6.505621e+00  2.237139e+00  2.302777e+01  # Ow water
    197      66    2   0.556400  6.682578e+00  1.499625e+00  2.361171e+01  # Hw water
    198      66    2   0.556400  5.972372e+00  2.835237e+00  2.355136e+01  # Hw water
    199      67    1  -1.112800  4.360900e+00  2.318434e+00  3.802769e+00  # Ow water
    200      67    2   0.556400  5.075291e+00  2.870421e+00  4.120868e+00  # Hw water
    201      67    2   0.556400  4.785906e+00  1.499998e+00  3.546331e+00  # Hw water
    202      68    1  -1.112800  1.190692e+01  1.187691e+01  2.824670e+01  # Ow water
    203      68    2   0.556400  1.106779e+01  1.176631e+01  2.779965e+01  # Hw water
    204      68    2   0.556400  1.245201e+01  1.116398e+01  2.791377e+01  # Hw water
    205      69    1  -1.112800  4.158014e+00  2.997699e+01  1.370207e+01  # Ow water
    206      69    2   0.556400  5.064683e+00  3.018938e+01  1.348055e+01  # Hw water
    207      69    2   0.556400  3.952292e+00  2.921249e+01  1.316408e+01  # Hw water
    208      70    1  -1.112800  1.330016e+01  3.017819e+01  2.277600e+01  # Ow water
    209      70    2   0.556400  1.392760e+01  3.018930e+01  2.205320e+01  # Hw water
    210      70    2   0.556400  1.244307e+01  3.018930e+01  2.234997e+01  # Hw water
    211      71    1  -1.112800  2.326628e+01  6.195155e+00  1.153880e+01  # Ow water
    212      71    2   0.556400  2.343456e+01  6.319602e+00  1.247283e+01  # Hw water
    213      71    2   0.556400  2.374525e+01  5.397823e+00  1.131279e+01  # Hw water
    214      72    1  -1.112800  2.825358e+01  2.151197e+01  2.123693e+00  # Ow water
    215      72    2   0.556400  2.868884e+01  2.093079e+01  1.499988e+00  # Hw water
    216      72    2   0.556400  2.790573e+01  2.222354e+01  1.586201e+00  # Hw water
    217      73    1  -1.112800  1.494485e+01  1.682014e+00  3.006616e+01  # Ow water
    218      73    2   0.556400  1.478531e+01  1.499993e+00  2.914007e+01  # Hw water
    219      73    2   0.556400  1.587646e+01  1.499995e+00  3.018949e+01  # Hw water
    220      74    1  -1.112800  2.244773e+01  9.587290e+00  5.480041e+00  # Ow water
    221      74    2   0.556400  2.230869e+01  8.682918e+00  5.761121e+00  # Hw water
    222      74    2   0.556400  2.185374e+01  9.702078e+00  4.738268e+00  # Hw water
    223      75    1  -1.112800  5.249632e+00  2.657991e+01  2.961056e+01  # Ow water
    224      75    2   0.556400  4.475278e+00  2.635910e+01  3.012809e+01  # Hw water
    225      75    2   0.556400  5.779925e+00  2.712438e+01  3.019243e+01  # Hw water
    226      76    1  -1.112800  2.518579e+01  2.028993e+01  1.711220e+00  # Ow water
    227      76    2   0.556400  2.469327e+01  1.949681e+01  1.499986e+00  # Hw water
    228      76    2   0.556400  2.610039e+01  2.005220e+01  1.558844e+00  # Hw water
    229      77    1  -1.112800  1.919546e+01  2.695590e+01  2.301708e+01  # Ow water
    230      77    2   0.556400  1.986604e+01  2.644154e+01  2.256767e+01  # Hw water
    231      77    2   0.556400  1.966521e+01  2.739590e+01  2.372557e+01  # Hw water
    232      78    1  -1.112800  3.005102e+01  2.430685e+01  6.883871e+00  # Ow water
    233      78    2   0.556400  2.948219e+01  2.483334e+01  7.445533e+00  # Hw water
    234      78    2   0.556400  3.018931e+01  2.349663e+01  7.374423e+00  # Hw water
    235      79    1  -1.112800  7.250338e+00  2.804374e+01  1.977727e+01  # Ow water
    236      79    2   0.556400  6.376632e+00  2.776510e+01  1.950300e+01  # Hw water
    237      79    2   0.556400  7.616381e+00  2.728051e+01  2.022417e+01  # Hw water
    238      80    1  -1.112800  8.684960e+00  4.465066e+00  1.718128e+01  # Ow water
    239      80    2   0.556400  7.777992e+00  4.328816e+00  1.745528e+01  # Hw water
    240      80    2   0.556400  8.684424e+00  4.270092e+00  1.624415e+01  # Hw water
    241      81    1  -1.112800  2.497707e+01  1.171974e+01  2.685385e+01  # Ow water
    242      81    2   0.556400  2.422273e+01  1.181297e+01  2.743567e+01  # Hw water
    243      81    2   0.556400  2.556619e+01  1.112508e+01  2.731812e+01  # Hw water
    244      82    1  -1.112800  1.280874e+01  1.718994e+01  7.051791e+00  # Ow water
    245      82    2   0.556400  1.215764e+01  1.657564e+01  7.390810e+00  # Hw water
    246      82    2   0.556400  1.356174e+01  1.708691e+01  7.633681e+00  # Hw water
    247      83    1  -1.112800  1.012943e+01  8.534563e+00  1.970595e+01  # Ow water
    248      83    2   0.556400  1.055132e+01  8.620036e+00  1.885100e+01  # Hw water
    249      83    2   0.556400  9.192864e+00  8.509101e+00  1.950994e+01  # Hw water
    250      84    1  -1.112800  3.901066e+00  2.114783e+00  2.186981e+01  # Ow water
    251      84    2   0.556400  3.713152e+00  2.939975e+00  2.231699e+01  # Hw water
    252      84    2   0.556400  4.098356e+00  1.498904e+00  2.257550e+01  # Hw water
    253      85    1  -1.112800  8.213207e+00  2.260266e+01  2.960355e+01  # Ow water
    254      85    2   0.556400  7.557886e+00  2.222450e+01  3.018988e+01  # Hw water
    255      85    2   0.556400  8.869156e+00  2.298111e+01  3.018898e+01  # Hw water
    256      86    1  -1.112800  2.247616e+01  2.050941e+01  2.055928e+00  # Ow water
    257      86    2   0.556400  2.169772e+01  2.045609e+01  1.501476e+00  # Hw water
    258      86    2   0.556400  2.213847e+01  2.045279e+01  2.949791e+00  # Hw water
    259      87    1  -1.112800  1.426264e+01  5.329315e+00  7.960039e+00  # Ow water
    260      87    2   0.556400  1.367546e+01  5.706918e+00  7.305159e+00  # Hw water
    261      87    2   0.556400  1.472246e+01  4.630115e+00  7.495376e+00  # Hw water
    262      88    1  -1.112800  2.735063e+01  1.897016e+01  3.495544e+00  # Ow water
    263      88    2   0.556400  2.796438e+01  1.889944e+01  2.764422e+00  # Hw water
    264      88    2   0.556400  2.761753e+01  1.976524e+01  3.956892e+00  # Hw water
    265      89    1  -1.112800  3.018945e+01  5.594011e+00  5.435175e+00  # Ow water
    266      89    2   0.556400  2.931617e+01  5.967809e+00  5.552986e+00  # Hw water
    267      89    2   0.556400  3.011887e+01  4.704989e+00  5.782864e+00  # Hw water
    268      90    1  -1.112800  2.154243e+01  2.153127e+01  2.124568e+01  # Ow water
    269      90    2   0.556400  2.105418e+01  2.173079e+01  2.044691e+01  # Hw water
    270      90    2   0.556400  2.244988e+01  2.174932e+01  2.103305e+01  # Hw water
    271      91    1  -1.112800  2.266154e+01  1.926480e+01  2.574662e+01  # Ow water
    272      91    2   0.556400  2.254727e+01  1.986006e+01  2.648745e+01  # Hw water
    273      91    2   0.556400  2.258319e+01  1.839006e+01  2.612731e+01  # Hw water
    274      92    1  -1.112800  2.266252e+01  9.275083e+00  1.195431e+01  # Ow water
    275      92    2   0.556400  2.262463e+01  1.021749e+01  1.179101e+01  # Hw water
    276      92    2   0.556400  2.301481e+01  8.905215e+00  1.114480e+01  # Hw water
    277      93    1  -1.112800  5.594551e+00  2.578640e+01  8.326503e+00  # Ow water
    278      93    2   0.556400  5.822259e+00  2.530558e+01  9.122233e+00  # Hw water
    279      93    2   0.556400  4.637444e+00  2.579603e+01  8.317522e+00  # Hw water
    280      94    1  -1.112800  5.815099e+00  1.112742e+01  1.555568e+01  # Ow water
    281      94    2   0.556400  5.933032e+00  1.102231e+01  1.649975e+01  # Hw water
    282      94    2   0.556400  6.698316e+00  1.105469e+01  1.519392e+01  # Hw water
    283      95    1  -1.112800  1.675678e+01  1.777126e+00  1.836411e+01  # Ow water
    284      95    2   0.556400  1.675935e+01  2.211383e+00  1.921713e+01  # Hw water
    285      95    2   0.556400  1.584923e+01  1.499913e+00  1.823867e+01  # Hw water
    286      96    1  -1.112800  1.070658e+01  1.754127e+01  4.559717e+00  # Ow water
    287      96    2   0.556400  1.080192e+01  1.780186e+01  3.643621e+00  # Hw water
    288      96    2   0.556400  1.160418e+01  1.742118e+01  4.869732e+00  # Hw water
    289      97    1  -1.112800  1.686398e+00  2.250018e+01  4.989609e+00  # Ow water
    290      97    2   0.556400  1.499964e+00  2.341893e+01  5.182927e+00  # Hw water
    291      97    2   0.556400  1.499990e+00  2.204011e+01  5.808034e+00  # Hw water
    292      98    1  -1.112800  2.116559e+01  1.347182e+01  2.156908e+01  # Ow water
    293      98    2   0.556400  2.060123e+01  1.276918e+01  2.124654e+01  # Hw water
    294      98    2   0.556400  2.187102e+01  1.301971e+01  2.203188e+01  # Hw water
    295      99    1  -1.112800  2.345439e+01  2.209054e+01  9.350990e+00  # Ow water
    296      99    2   0.556400  2.321339e+01  2.206217e+01  8.425064e+00  # Hw water
    297      99    2   0.556400  2.440675e+01  2.218670e+01  9.348256e+00  # Hw water
    298     100    1  -1.112800  2.145850e+01  3.163318e+00  2.846646e+01  # Ow water
    299     100    2   0.556400  2.203057e+01  2.907092e+00  2.774305e+01  # Hw water
    300     100    2   0.556400  2.075731e+01  3.665729e+00  2.805156e+01  # Hw water
    301     101    1  -1.112800  8.167032e+00  2.959458e+01  1.474418e+01  # Ow water
    302     101    2   0.556400  7.759896e+00  3.013718e+01  1.406887e+01  # Hw water
    303     101    2   0.556400  8.757954e+00  3.018937e+01  1.520599e+01  # Hw water
    304     102    1  -1.112800  2.670877e+01  1.499870e+00  1.580478e+00  # Ow water
    305     102    2   0.556400  2.724294e+01  2.290034e+00  1.499659e+00  # Hw water
    306     102    2   0.556400  2.580698e+01  1.810531e+00  1.499844e+00  # Hw water
    307     103    1  -1.112800  2.006442e+01  3.018941e+01  2.151872e+01  # Ow water
    308     103    2   0.556400  1.941777e+01  2.993714e+01  2.217784e+01  # Hw water
    309     103    2   0.556400  1.959351e+01  3.013450e+01  2.068718e+01  # Hw water
    310     104    1  -1.112800  1.391542e+01  2.924416e+01  2.617298e+00  # Ow water
    311     104    2   0.556400  1.423392e+01  2.890371e+01  1.781308e+00  # Hw water
    312     104    2   0.556400  1.405590e+01  3.018930e+01  2.560703e+00  # Hw water
    313     105    1  -1.112800  1.499986e+00  4.398603e+00  1.494624e+01  # Ow water
    314     105    2   0.556400  1.655409e+00  5.304702e+00  1.467967e+01  # Hw water
    315     105    2   0.556400  1.805743e+00  4.359226e+00  1.585243e+01  # Hw water
    316     106    1  -1.112800  1.364245e+01  7.441513e+00  2.161582e+00  # Ow water
    317     106    2   0.556400  1.354243e+01  8.252052e+00  1.662330e+00  # Hw water
    318     106    2   0.556400  1.381699e+01  6.772133e+00  1.499999e+00  # Hw water
    319     107    1  -1.112800  1.920181e+01  2.914848e+01  2.721189e+01  # Ow water
    320     107    2   0.556400  1.940463e+01  2.868033e+01  2.802178e+01  # Hw water
    321     107    2   0.556400  1.936764e+01  2.851043e+01  2.651790e+01  # Hw water
    322     108    1  -1.112800  1.655110e+01  2.106640e+01  4.579269e+00  # Ow water
    323     108    2   0.556400  1.746436e+01  2.077985e+01  4.587283e+00  # Hw water
    324     108    2   0.556400  1.614115e+01  2.058154e+01  5.295566e+00  # Hw water
    325     109    1  -1.112800  1.319384e+01  2.590617e+01  1.746208e+00  # Ow water
    326     109    2   0.556400  1.370402e+01  2.602374e+01  2.547536e+00  # Hw water
    327     109    2   0.556400  1.292629e+01  2.679161e+01  1.499971e+00  # Hw water
    328     110    1  -1.112800  2.492861e+00  1.924613e+00  1.534479e+01  # Ow water
    329     110    2   0.556400  2.982398e+00  1.507086e+00  1.463609e+01  # Hw water
    330     110    2   0.556400  1.584100e+00  1.664152e+00  1.519465e+01  # Hw water
    331     111    1  -1.112800  2.313421e+01  7.497171e+00  8.799682e+00  # Ow water
    332     111    2   0.556400  2.377385e+01  6.787363e+00  8.856817e+00  # Hw water
    333     111    2   0.556400  2.231518e+01  7.107348e+00  9.105390e+00  # Hw water
    334     112    1  -1.112800  9.863071e+00  2.769581e+01  2.699847e+01  # Ow water
    335     112    2   0.556400  9.671782e+00  2.774428e+01  2.606184e+01  # Hw water
    336     112    2   0.556400  9.822282e+00  2.676176e+01  2.720372e+01  # Hw water
    337     113    1  -1.112800  1.821910e+00  1.203090e+01  2.954554e+01  # Ow water
    338     113    2   0.556400  1.499768e+00  1.139801e+01  3.018735e+01  # Hw water
    339     113    2   0.556400  2.464418e+00  1.255349e+01  3.002545e+01  # Hw water
    340     114    1  -1.112800  2.487087e+01  4.254751e+00  2.643481e+01  # Ow water
    341     114    2   0.556400  2.473719e+01  4.442514e+00  2.550578e+01  # Hw water
    342     114    2   0.556400  2.398832e+01  4.130521e+00  2.678395e+01  # Hw water
    343     115    1  -1.112800  1.865987e+01  2.765053e+01  1.919392e+00  # Ow water
    344     115    2   0.556400  1.937604e+01  2.816046e+01  1.540832e+00  # Hw water
    345     115    2   0.556400  1.874014e+01  2.678683e+01  1.514648e+00  # Hw water
    346     116    1  -1.112800  2.009421e+00  3.018979e+01  1.559003e+01  # Ow water