created by fftool

3162 atoms
2108 bonds
1108 angles
6 atom types
3 bond types
2 angle types
0.000000 31.689281 xlo xhi
0.000000 31.689281 ylo yhi
0.000000 31.689281 zlo zhi

Atoms

      1       1    1  -1.112800  1.299110e+01  2.966996e+01  1.426750e+01  # Ow water
      2       1    2   0.556400  1.220252e+01  2.931681e+01  1.385560e+01  # Hw water
      3       1    2   0.556400  1.266576e+01  3.018940e+01  1.500272e+01  # Hw water
      4       2    1  -1.112800  1.573761e+01  1.744634e+01  1.258919e+01  # Ow water
      5       2    2   0.556400  1.636016e+01  1.816738e+01  1.249558e+01  # Hw water
      6       2    2   0.556400  1.529762e+01  1.761579e+01  1.342221e+01  # Hw water
      7       3    1  -1.112800  2.318900e+01  5.200414e+00  1.520318e+01  # Ow water
      8       3    2   0.556400  2.322682e+01  5.989223e+00  1.574409e+01  # Hw water
      9       3    2   0.556400  2.410012e+01  4.916640e+00  1.512861e+01  # Hw water
     10       4    1  -1.112800  1.481686e+01  1.865702e+01  9.705234e+00  # Ow water
     11       4    2   0.556400  1.508231e+01  1.863666e+01  8.785803e+00  # Hw water
     12       4    2   0.556400  1.563236e+01  1.879347e+01  1.018750e+01  # Hw water
     13       5    1  -1.112800  2.753472e+01  2.127325e+00  1.671092e+01  # Ow water
     14       5    2   0.556400  2.723256e+01  1.499838e+00  1.605427e+01  # Hw water
     15       5    2   0.556400  2.768717e+01  1.599648e+00  1.749485e+01  # Hw water
     16       6    1  -1.112800  1.405913e+01  2.371085e+01  1.497524e+00  # Ow water
     17       6    2   0.556400  1.330358e+01  2.378725e+01  2.080229e+00  # Hw water
     18       6    2   0.556400  1.467409e+01  2.315300e+01  1.973805e+00  # Hw water
     19       7    1  -1.112800  4.658588e+00  1.625446e+01  2.965363e+01  # Ow water
     20       7    2   0.556400  4.955543e+00  1.549383e+01  3.015311e+01  # Hw water
     21       7    2   0.556400  4.891787e+00  1.700569e+01  3.019907e+01  # Hw water
     22       8    1  -1.112800  2.054437e+01  1.866611e+01  2.158579e+01  # Ow water
     23       8    2   0.556400  2.006231e+01  1.918984e+01  2.222576e+01  # Hw water
     24       8    2   0.556400  1.991401e+01  1.800964e+01  2.128927e+01  # Hw water
     25       9    1  -1.112800  2.106721e+01  2.775301e+01  3.009559e+01  # Ow water
     26       9    2   0.556400  2.199077e+01  2.798539e+01  3.019185e+01  # Hw water
     27       9    2   0.556400  2.093006e+01  2.770135e+01  2.914968e+01  # Hw water
     28      10    1  -1.112800  3.009866e+01  1.203937e+01  1.687311e+01  # Ow water
     29      10    2   0.556400  3.018734e+01  1.133264e+01  1.751255e+01  # Hw water
     30      10    2   0.556400  3.019427e+01  1.284130e+01  1.738692e+01  # Hw water
     31      11    1  -1.112800  1.827985e+01  1.839150e+01  2.946517e+01  # Ow water
     32      11    2   0.556400  1.847647e+01  1.857128e+01  2.854579e+01  # Hw water
     33      11    2   0.556400  1.793275e+01  1.921739e+01  2.980230e+01  # Hw water
     34      12    1  -1.112800  6.170809e+00  3.019031e+01  2.144452e+01  # Ow water
     35      12    2   0.556400  5.653380e+00  2.985853e+01  2.071075e+01  # Hw water
     36      12    2   0.556400  7.071880e+00  3.019166e+01  2.112157e+01  # Hw water
     37      13    1  -1.112800  1.502758e+00  4.769990e+00  1.561227e+00  # Ow water
     38      13    2   0.556400  1.499302e+00  5.725195e+00  1.499579e+00  # Hw water
     39      13    2   0.556400  1.552068e+00  4.590273e+00  2.500109e+00  # Hw water
     40      14    1  -1.112800  3.019724e+01  2.676600e+01  2.620393e+01  # Ow water
     41      14    2   0.556400  3.006649e+01  2.619004e+01  2.695719e+01  # Hw water
     42      14    2   0.556400  3.019147e+01  2.764908e+01  2.657318e+01  # Hw water
     43      15    1  -1.112800  2.939245e+01  2.331539e+01  1.014489e+01  # Ow water
     44      15    2   0.556400  3.018956e+01  2.278610e+01  1.011843e+01  # Hw water
     45      15    2   0.556400  2.955160e+01  2.395438e+01  1.083958e+01  # Hw water
     46      16    1  -1.112800  2.279162e+01  2.934060e+01  2.424801e+01  # Ow water
     47      16    2   0.556400  2.226397e+01  3.011259e+01  2.445256e+01  # Hw water
     48      16    2   0.556400  2.278746e+01  2.882629e+01  2.505529e+01  # Hw water
     49      17    1  -1.112800  3.013241e+01  1.283516e+01  2.106501e+01  # Ow water
     50      17    2   0.556400  3.019078e+01  1.204326e+01  2.053047e+01  # Hw water
     51      17    2   0.556400  3.017919e+01  1.355409e+01  2.043479e+01  # Hw water
     52      18    1  -1.112800  8.767801e+00  2.312957e+01  1.729860e+01  # Ow water
     53      18    2   0.556400  7.907037e+00  2.283995e+01  1.760098e+01  # Hw water
     54      18    2   0.556400  9.157934e+00  2.355844e+01  1.806024e+01  # Hw water
     55      19    1  -1.112800  4.099133e+00  2.126853e+01  2.443418e+01  # Ow water
     56      19    2   0.556400  3.618430e+00  2.194013e+01  2.491803e+01  # Hw water
     57      19    2   0.556400  5.020610e+00  2.149349e+01  2.456265e+01  # Hw water
     58      20    1  -1.112800  1.148013e+01  2.546874e+01  2.955367e+01  # Ow water
     59      20    2   0.556400  1.178077e+01  2.481965e+01  3.018971e+01  # Hw water
     60      20    2   0.556400  1.072859e+01  2.588659e+01  2.997416e+01  # Hw water
     61      21    1  -1.112800  1.364282e+01  1.402753e+01  2.544666e+01  # Ow water
     62      21    2   0.556400  1.379801e+01  1.427694e+01  2.635767e+01  # Hw water
     63      21    2   0.556400  1.269008e+01  1.397421e+01  2.537140e+01  # Hw water
     64      22    1  -1.112800  1.749276e+01  1.669220e+01  3.707552e+00  # Ow water
     65      22    2   0.556400  1.791462e+01  1.587764e+01  3.980971e+00  # Hw water
     66      22    2   0.556400  1.732986e+01  1.716401e+01  4.524308e+00  # Hw water
     67      23    1  -1.112800  9.747177e+00  1.171813e+01  2.899709e+01  # Ow water
     68      23    2   0.556400  1.007505e+01  1.120947e+01  2.825548e+01  # Hw water
     69      23    2   0.556400  1.010348e+01  1.127596e+01  2.976765e+01  # Hw water
     70      24    1  -1.112800  2.959868e+01  1.486516e+00  2.097286e+01  # Ow water
     71      24    2   0.556400  3.020202e+01  1.996997e+00  2.151288e+01  # Hw water
     72      24    2   0.556400  2.970365e+01  1.844831e+00  2.009149e+01  # Hw water
     73      25    1  -1.112800  1.711203e+01  8.378287e+00  3.327070e+00  # Ow water
     74      25    2   0.556400  1.632635e+01  8.876084e+00  3.100939e+00  # Hw water
     75      25    2   0.556400  1.765044e+01  8.993022e+00  3.825511e+00  # Hw water
     76      26    1  -1.112800  2.232492e+01  1.154094e+01  1.998061e+01  # Ow water
     77      26    2   0.556400  2.255017e+01  1.061195e+01  1.993077e+01  # Hw water
     78      26    2   0.556400  2.316707e+01  1.199440e+01  1.994347e+01  # Hw water
     79      27    1  -1.112800  1.583471e+01  1.055339e+01  2.214326e+01  # Ow water
     80      27    2   0.556400  1.548457e+01  1.097237e+01  2.292945e+01  # Hw water
     81      27    2   0.556400  1.506311e+01  1.035788e+01  2.161163e+01  # Hw water
     82      28    1  -1.112800  4.371471e+00  1.019049e+01  2.255614e+01  # Ow water
     83      28    2   0.556400  4.322864e+00  9.332313e+00  2.213496e+01  # Hw water
     84      28    2   0.556400  4.189897e+00  1.001529e+01  2.347949e+01  # Hw water
     85      29    1  -1.112800  2.020770e+01  1.949224e+00  8.098228e+00  # Ow water
     86      29    2   0.556400  2.086760e+01  1.496674e+00  7.572912e+00  # Hw water
     87      29    2   0.556400  2.022312e+01  1.498971e+00  8.942778e+00  # Hw water
     88      30    1  -1.112800  1.837079e+00  1.067920e+01  2.547615e+01  # Ow water
     89      30    2   0.556400  1.499662e+00  1.140841e+01  2.495593e+01  # Hw water
     90      30    2   0.556400  1.495618e+00  9.897005e+00  2.504278e+01  # Hw water
     91      31    1  -1.112800  1.582068e+01  2.066648e+01  2.577698e+01  # Ow water
     92      31    2   0.556400  1.663132e+01  2.054259e+01  2.528328e+01  # Hw water
     93      31    2   0.556400  1.571092e+01  1.985135e+01  2.626662e+01  # Hw water
     94      32    1  -1.112800  2.770503e+01  2.420676e+01  1.495974e+00  # Ow water
     95      32    2   0.556400  2.759284e+01  2.495921e+01  2.076886e+00  # Hw water
     96      32    2   0.556400  2.780686e+01  2.346054e+01  2.086759e+00  # Hw water
     97      33    1  -1.112800  2.977876e+01  6.747803e+00  1.164873e+01  # Ow water
     98      33    2   0.556400  2.942081e+01  6.191339e+00  1.234042e+01  # Hw water
     99      33    2   0.556400  3.019070e+01  7.475220e+00  1.211500e+01  # Hw water
    100      34    1  -1.112800  1.579430e+00  2.910697e+01  3.021318e+01  # Ow water
    101      34    2   0.556400  1.867446e+00  2.997960e+01  2.994525e+01  # Hw water
    102      34    2   0.556400  1.493312e+00  2.862044e+01  2.939336e+01  # Hw water
    103      35    1  -1.112800  1.989493e+01  3.011423e+01  7.221717e+00  # Ow water
    104      35    2   0.556400  2.014429e+01  3.019198e+01  6.300845e+00  # Hw water
    105      35    2   0.556400  1.894083e+01  3.019111e+01  7.219309e+00  # Hw water
    106      36    1  -1.112800  1.814474e+01  3.119900e+00  2.835820e+01  # Ow water
    107      36    2   0.556400  1.889525e+01  3.427501e+00  2.784992e+01  # Hw water
    108      36    2   0.556400  1.738175e+01  3.392361e+00  2.784845e+01  # Hw water
    109      37    1  -1.112800  2.266911e+01  3.481196e+00  9.431146e+00  # Ow water
    110      37    2   0.556400  2.256940e+01  3.010072e+00  8.603904e+00  # Hw water
    111      37    2   0.556400  2.189907e+01  3.233305e+00  9.942825e+00  # Hw water
    112      38    1  -1.112800  2.992165e+01  1.529566e+01  2.300353e+01  # Ow water
    113      38    2   0.556400  3.019012e+01  1.542410e+01  2.209377e+01  # Hw water
    114      38    2   0.556400  3.003178e+01  1.615529e+01  2.340990e+01  # Hw water
    115      39    1  -1.112800  1.496766e+00  3.695598e+00  8.228180e+00  # Ow water
    116      39    2   0.556400  1.503896e+00  4.546788e+00  7.790398e+00  # Hw water
    117      39    2   0.556400  1.574471e+00  3.903909e+00  9.159200e+00  # Hw water
    118      40    1  -1.112800  2.532336e+01  2.355397e+01  2.357360e+00  # Ow water
    119      40    2   0.556400  2.466229e+01  2.316222e+01  2.928106e+00  # Hw water
    120      40    2   0.556400  2.530168e+01  2.301998e+01  1.563248e+00  # Hw water
    121      41    1  -1.112800  2.583357e+01  3.011404e+01  1.548547e+00  # Ow water
    122      41    2   0.556400  2.567444e+01  2.917152e+01  1.498010e+00  # Hw water
    123      41    2   0.556400  2.677681e+01  3.019082e+01  1.692181e+00  # Hw water
    124      42    1  -1.112800  2.357384e+00  1.690242e+01  4.679261e+00  # Ow water
    125      42    2   0.556400  1.503810e+00  1.659654e+01  4.372546e+00  # Hw water
    126      42    2   0.556400  2.934451e+00  1.680225e+01  3.922170e+00  # Hw water
    127      43    1  -1.112800  3.018305e+01  6.946258e+00  9.189908e+00  # Ow water
    128      43    2   0.556400  3.020358e+01  6.325195e+00  8.461835e+00  # Hw water
    129      43    2   0.556400  2.996901e+01  7.785886e+00  8.783166e+00  # Hw water
    130      44    1  -1.112800  1.496086e+00  1.759879e+01  9.150833e+00  # Ow water
    131      44    2   0.556400  1.555245e+00  1.841661e+01  9.644699e+00  # Hw water
    132      44    2   0.556400  1.516803e+00  1.691321e+01  9.818499e+00  # Hw water
    133      45    1  -1.112800  2.436424e+01  1.877799e+01  6.004635e+00  # Ow water
    134      45    2   0.556400  2.343544e+01  1.855352e+01  5.948287e+00  # Hw water
    135      45    2   0.556400  2.467369e+01  1.832417e+01  6.788542e+00  # Hw water
    136      46    1  -1.112800  2.624554e+01  2.143197e+01  3.793704e+00  # Ow water
    137      46    2   0.556400  2.664615e+01  2.141101e+01  2.924625e+00  # Hw water
    138      46    2   0.556400  2.557352e+01  2.075095e+01  3.764674e+00  # Hw water
    139      47    1  -1.112800  9.186342e+00  3.007987e+01  1.258163e+01  # Ow water
    140      47    2   0.556400  9.988980e+00  3.019146e+01  1.309109e+01  # Hw water
    141      47    2   0.556400  9.137147e+00  2.913868e+01  1.241439e+01  # Hw water
    142      48    1  -1.112800  1.211941e+01  2.439413e+01  1.997329e+01  # Ow water
    143      48    2   0.556400  1.148958e+01  2.465176e+01  2.064646e+01  # Hw water
    144      48    2   0.556400  1.180768e+01  2.482289e+01  1.917629e+01  # Hw water
    145      49    1  -1.112800  4.123744e+00  2.443414e+01  1.496623e+01  # Ow water
    146      49    2   0.556400  4.213424e+00  2.462229e+01  1.403200e+01  # Hw water
    147      49    2   0.556400  3.945971e+00  2.528527e+01  1.536648e+01  # Hw water
    148      50    1  -1.112800  3.940635e+00  2.086219e+00  2.133400e+01  # Ow water
    149      50    2   0.556400  3.846663e+00  1.500436e+00  2.058283e+01  # Hw water
    150      50    2   0.556400  4.011481e+00  1.500473e+00  2.208773e+01  # Hw water
    151      51    1  -1.112800  1.519435e+01  6.005704e+00  1.818274e+01  # Ow water
    152      51    2   0.556400  1.574853e+01  6.533669e+00  1.760796e+01  # Hw water
    153      51    2   0.556400  1.465280e+01  5.489264e+00  1.758588e+01  # Hw water
    154      52    1  -1.112800  9.395000e+00  2.696492e+01  2.753511e+01  # Ow water
    155      52    2   0.556400  9.148102e+00  2.708460e+01  2.845214e+01  # Hw water
    156      52    2   0.556400  9.908153e+00  2.615693e+01  2.752821e+01  # Hw water
    157      53    1  -1.112800  3.017797e+01  2.287201e+00  2.470283e+01  # Ow water
    158      53    2   0.556400  3.012409e+01  1.500469e+00  2.524540e+01  # Hw water
    159      53    2   0.556400  3.019071e+01  3.010558e+00  2.532959e+01  # Hw water
    160      54    1  -1.112800  1.979218e+01  1.709795e+01  2.164017e+00  # Ow water
    161      54    2   0.556400  2.042390e+01  1.682264e+01  1.499663e+00  # Hw water
    162      54    2   0.556400  1.927837e+01  1.778350e+01  1.737125e+00  # Hw water
    163      55    1  -1.112800  2.430086e+01  2.172020e+01  2.962580e+01  # Ow water
    164      55    2   0.556400  2.420725e+01  2.095388e+01  3.019169e+01  # Hw water
    165      55    2   0.556400  2.395311e+01  2.244555e+01  3.014461e+01  # Hw water
    166      56    1  -1.112800  5.924665e+00  1.555219e+00  1.147193e+01  # Ow water
    167      56    2   0.556400  5.269996e+00  1.498939e+00  1.077589e+01  # Hw water
    168      56    2   0.556400  6.764653e+00  1.498355e+00  1.101650e+01  # Hw water
    169      57    1  -1.112800  1.651326e+01  2.125775e+01  2.953591e+01  # Ow water
    170      57    2   0.556400  1.587743e+01  2.096795e+01  3.019009e+01  # Hw water
    171      57    2   0.556400  1.723456e+01  2.162360e+01  3.004788e+01  # Hw water
    172      58    1  -1.112800  7.274747e+00  1.635672e+01  2.979761e+01  # Ow water
    173      58    2   0.556400  7.225344e+00  1.707170e+01  2.916311e+01  # Hw water
    174      58    2   0.556400  8.189405e+00  1.634895e+01  3.007969e+01  # Hw water
    175      59    1  -1.112800  4.133483e+00  7.850292e+00  1.393534e+01  # Ow water
    176      59    2   0.556400  3.523048e+00  8.323437e+00  1.336989e+01  # Hw water
    177      59    2   0.556400  4.734352e+00  7.416231e+00  1.332972e+01  # Hw water
    178      60    1  -1.112800  2.540698e+00  2.113916e+01  3.019426e+01  # Ow water
    179      60    2   0.556400  2.224849e+00  2.204253e+01  3.017429e+01  # Hw water
    180      60    2   0.556400  3.315131e+00  2.114320e+01  2.963171e+01  # Hw water
    181      61    1  -1.112800  1.379937e+01  2.044004e+01  1.499500e+00  # Ow water
    182      61    2   0.556400  1.465026e+01  2.065486e+01  1.881683e+00  # Hw water
    183      61    2   0.556400  1.321451e+01  2.113000e+01  1.812750e+00  # Hw water
    184      62    1  -1.112800  1.285323e+01  2.994287e+01  2.163520e+01  # Ow water
    185      62    2   0.556400  1.365422e+01  3.017615e+01  2.210449e+01  # Hw water
    186      62    2   0.556400  1.302691e+01  3.018935e+01  2.072674e+01  # Hw water
    187      63    1  -1.112800  6.574928e+00  2.622743e+01  2.717735e+01  # Ow water
    188      63    2   0.556400  6.608807e+00  2.617241e+01  2.622233e+01  # Hw water
    189      63    2   0.556400  6.370199e+00  2.714491e+01  2.735776e+01  # Hw water
    190      64    1  -1.112800  2.937561e+01  7.505226e+00  1.558973e+00  # Ow water
    191      64    2   0.556400  3.019243e+01  7.480646e+00  2.057388e+00  # Hw water
    192      64    2   0.556400  2.911500e+01  6.587586e+00  1.479918e+00  # Hw water
    193      65    1  -1.112800  2.410621e+01  8.365957e+00  2.938168e+01  # Ow water
    194      65    2   0.556400  2.451945e+01  8.136845e+00  3.021412e+01  # Hw water
    195      65    2   0.556400  2.475652e+01  8.904846e+00  2.893121e+01  # Hw water
    196      66    1  -1.112800  2.914013e+01  1.052362e+01  8.038347e+00  # Ow water
    197      66    2   0.556400  2.860250e+01  9.732638e+00  7.999306e+00  # Hw water
    198      66    2   0.556400  3.003685e+01  1.020025e+01  8.125249e+00  # Hw water
    199      67    1  -1.112800  2.775986e+01  2.422310e+00  1.744464e+00  # Ow water
    200      67    2   0.556400  2.689997e+01  2.785074e+00  1.531807e+00  # Hw water
    201      67    2   0.556400  2.769810e+01  1.499060e+00  1.499466e+00  # Hw water
    202      68    1  -1.112800  6.789949e+00  2.088883e+01  1.997242e+01  # Ow water
    203      68    2   0.556400  7.045617e+00  2.001626e+01  1.967329e+01  # Hw water
    204      68    2   0.556400  6.619396e+00  2.137804e+01  1.916754e+01  # Hw water
    205      69    1  -1.112800  5.125985e+00  1.226688e+01  2.531567e+01  # Ow water
    206      69    2   0.556400  4.917745e+00  1.319398e+01  2.543121e+01  # Hw water
    207      69    2   0.556400  4.277348e+00  1.184538e+01  2.518009e+01  # Hw water
    208      70    1  -1.112800  1.214420e+01  4.167756e+00  6.607997e+00  # Ow water
    209      70    2   0.556400  1.251687e+01  3.916968e+00  7.453251e+00  # Hw water
    210      70    2   0.556400  1.247781e+01  3.512820e+00  5.994816e+00  # Hw water
    211      71    1  -1.112800  3.002244e+01  1.578217e+00  3.007961e+01  # Ow water
    212      71    2   0.556400  2.906917e+01  1.499489e+00  3.011577e+01  # Hw water
    213      71    2   0.556400  3.019054e+01  2.513472e+00  3.019479e+01  # Hw water
    214      72    1  -1.112800  1.415070e+01  1.204081e+01  1.404293e+01  # Ow water
    215      72    2   0.556400  1.430976e+01  1.217019e+01  1.497792e+01  # Hw water
    216      72    2   0.556400  1.321893e+01  1.182942e+01  1.398500e+01  # Hw water
    217      73    1  -1.112800  9.097007e+00  6.176490e+00  2.568914e+01  # Ow water
    218      73    2   0.556400  9.407711e+00  5.280641e+00  2.582008e+01  # Hw water
    219      73    2   0.556400  8.843889e+00  6.210286e+00  2.476663e+01  # Hw water
    220      74    1  -1.112800  1.048277e+01  1.779498e+01  2.333490e+01  # Ow water
    221      74    2   0.556400  1.006766e+01  1.696768e+01  2.309096e+01  # Hw water
    222      74    2   0.556400  9.970860e+00  1.810982e+01  2.407992e+01  # Hw water
    223      75    1  -1.112800  8.319279e+00  2.690181e+01  2.446511e+01  # Ow water
    224      75    2   0.556400  9.002296e+00  2.737350e+01  2.398843e+01  # Hw water
    225      75    2   0.556400  8.796188e+00  2.628206e+01  2.501710e+01  # Hw water
    226      76    1  -1.112800  1.029398e+01  8.091333e+00  1.777275e+01  # Ow water
    227      76    2   0.556400  1.048891e+01  7.170525e+00  1.794694e+01  # Hw water
    228      76    2   0.556400  1.101350e+01  8.570810e+00  1.818337e+01  # Hw water
    229      77    1  -1.112800  2.137184e+01  1.322567e+01  2.222763e+01  # Ow water
    230      77    2   0.556400  2.136144e+01  1.227022e+01  2.217091e+01  # Hw water
    231      77    2   0.556400  2.185924e+01  1.350676e+01  2.145326e+01  # Hw water
    232      78    1  -1.112800  1.264850e+01  5.281447e+00  2.085594e+00  # Ow water
    233      78    2   0.556400  1.239940e+01  5.996091e+00  1.499539e+00  # Hw water
    234      78    2   0.556400  1.289771e+01  4.566555e+00  1.499890e+00  # Hw water
    235      79    1  -1.112800  1.498719e+00  2.715041e+01  1.502806e+01  # Ow water
    236      79    2   0.556400  1.737929e+00  2.643143e+01  1.561294e+01  # Hw water
    237      79    2   0.556400  2.158953e+00  2.712614e+01  1.433544e+01  # Hw water
    238      80    1  -1.112800  1.714846e+00  1.407221e+01  4.519013e+00  # Ow water
    239      80    2   0.556400  2.599859e+00  1.435138e+01  4.284396e+00  # Hw water
    240      80    2   0.556400  1.500082e+00  1.339293e+01  3.879731e+00  # Hw water
    241      81    1  -1.112800  1.565866e+01  1.891061e+01  2.878682e+01  # Ow water
    242      81    2   0.556400  1.602301e+01  1.810057e+01  2.843000e+01  # Hw water
    243      81    2   0.556400  1.520293e+01  1.863835e+01  2.958332e+01  # Hw water
    244      82    1  -1.112800  2.074283e+00  1.602736e+00  2.625172e+01  # Ow water
    245      82    2   0.556400  1.498988e+00  1.497817e+00  2.549392e+01  # Hw water
    246      82    2   0.556400  1.497343e+00  1.494647e+00  2.700782e+01  # Hw water
    247      83    1  -1.112800  9.673620e+00  2.191690e+01  1.841829e+00  # Ow water
    248      83    2   0.556400  9.594745e+00  2.102657e+01  1.499322e+00  # Hw water
    249      83    2   0.556400  1.051020e+01  2.223232e+01  1.499958e+00  # Hw water
    250      84    1  -1.112800  8.310388e+00  8.647924e+00  2.491654e+01  # Ow water
    251      84    2   0.556400  9.226423e+00  8.888384e+00  2.505543e+01  # Hw water
    252      84    2   0.556400  7.988670e+00  8.415151e+00  2.578749e+01  # Hw water
    253      85    1  -1.112800  1.847638e+01  2.686986e+01  1.175598e+01  # Ow water
    254      85    2   0.556400  1.792640e+01  2.730005e+01  1.110124e+01  # Hw water
    255      85    2   0.556400  1.906332e+01  2.631103e+01  1.124662e+01  # Hw water
    256      86    1  -1.112800  6.444546e+00  5.573385e+00  2.447175e+01  # Ow water
    257      86    2   0.556400  5.650976e+00  5.948537e+00  2.485351e+01  # Hw water
    258      86    2   0.556400  6.271895e+00  4.632578e+00  2.443565e+01  # Hw water
    259      87    1  -1.112800  1.098587e+01  2.009844e+00  1.802563e+01  # Ow water
    260      87    2   0.556400  1.178298e+01  1.498761e+00  1.816573e+01  # Hw water
    261      87    2   0.556400  1.029578e+01  1.499003e+00  1.844878e+01  # Hw water
    262      88    1  -1.112800  4.236216e+00  2.072975e+01  1.878055e+01  # Ow water
    263      88    2   0.556400  4.318215e+00  2.028943e+01  1.962649e+01  # Hw water
    264      88    2   0.556400  3.916732e+00  2.160595e+01  1.899603e+01  # Hw water
    265      89    1  -1.112800  1.885486e+01  1.961062e+01  3.659970e+00  # Ow water
    266      89    2   0.556400  1.929589e+01  1.999516e+01  2.902446e+00  # Hw water
    267      89    2   0.556400  1.803040e+01  1.927174e+01  3.311181e+00  # Hw water
    268      90    1  -1.112800  1.569518e+00  2.208454e+01  1.825411e+01  # Ow water
    269      90    2   0.556400  1.499877e+00  2.117010e+01  1.852828e+01  # Hw water
    270      90    2   0.556400  1.500041e+00  2.258482e+01  1.906720e+01  # Hw water
    271      91    1  -1.112800  2.518682e+01  1.249553e+01  1.589010e+01  # Ow water
    272      91    2   0.556400  2.488279e+01  1.158961e+01  1.583440e+01  # Hw water
    273      91    2   0.556400  2.448286e+01  1.295736e+01  1.634548e+01  # Hw water
    274      92    1  -1.112800  2.672569e+01  5.251774e+00  1.428379e+01  # Ow water
    275      92    2   0.556400  2.762152e+01  5.233032e+00  1.394709e+01  # Hw water
    276      92    2   0.556400  2.649966e+01  4.331080e+00  1.441593e+01  # Hw water
    277      93    1  -1.112800  1.589101e+01  1.418601e+01  1.178818e+01  # Ow water
    278      93    2   0.556400  1.626917e+01  1.336764e+01  1.210988e+01  # Hw water
    279      93    2   0.556400  1.664680e+01  1.471855e+01  1.154037e+01  # Hw water
    280      94    1  -1.112800  8.338928e+00  1.698813e+01  8.519798e+00  # Ow water
    281      94    2   0.556400  8.468886e+00  1.759952e+01  9.244737e+00  # Hw water
    282      94    2   0.556400  9.162589e+00  1.701469e+01  8.032863e+00  # Hw water
    283      95    1  -1.112800  1.999851e+01  1.153849e+01  2.982342e+01  # Ow water
    284      95    2   0.556400  2.063164e+01  1.092419e+01  3.019491e+01  # Hw water
    285      95    2   0.556400  1.922019e+01  1.100772e+01  2.965388e+01  # Hw water
    286      96    1  -1.112800  2.199493e+01  9.557596e+00  2.860676e+01  # Ow water
    287      96    2   0.556400  2.252112e+01  9.490759e+00  2.780996e+01  # Hw water
    288      96    2   0.556400  2.111041e+01  9.317016e+00  2.833112e+01  # Hw water
    289      97    1  -1.112800  1.576265e+00  1.587688e+01  1.496579e+00  # Ow water
    290      97    2   0.556400  1.497029e+00  1.675148e+01  1.877411e+00  # Hw water
    291      97    2   0.556400  1.498140e+00  1.528229e+01  2.242627e+00  # Hw water
    292      98    1  -1.112800  3.338982e+00  1.936018e+01  2.109459e+00  # Ow water
    293      98    2   0.556400  3.204012e+00  1.855745e+01  1.605833e+00  # Hw water
    294      98    2   0.556400  3.758861e+00  1.996159e+01  1.494460e+00  # Hw water
    295      99    1  -1.112800  2.776224e+01  1.247348e+01  4.045938e+00  # Ow water
    296      99    2   0.556400  2.829260e+01  1.169718e+01  4.225674e+00  # Hw water
    297      99    2   0.556400  2.686456e+01  1.219970e+01  4.234212e+00  # Hw water
    298     100    1  -1.112800  5.096810e+00  6.080450e+00  3.021042e+01  # Ow water
    299     100    2   0.556400  5.826756e+00  5.477445e+00  3.006974e+01  # Hw water
    300     100    2   0.556400  4.853295e+00  6.371639e+00  2.933171e+01  # Hw water
    301     101    1  -1.112800  2.485135e+01  2.393985e+01  8.647437e+00  # Ow water
    302     101    2   0.556400  2.523189e+01  2.403677e+01  7.774496e+00  # Hw water
    303     101    2   0.556400  2.391076e+01  2.405637e+01  8.513497e+00  # Hw water
    304     102    1  -1.112800  4.282871e+00  1.132109e+01  2.762438e+01  # Ow water
    305     102    2   0.556400  4.330461e+00  1.227514e+01  2.768563e+01  # Hw water
    306     102    2   0.556400  3.607787e+00  1.107342e+01  2.825617e+01  # Hw water
    307     103    1  -1.112800  1.803569e+01  1.034241e+01  5.894485e+00  # Ow water
    308     103    2   0.556400  1.770103e+01  1.101092e+01  6.492250e+00  # Hw water
    309     103    2   0.556400  1.837965e+01  9.657853e+00  6.468332e+00  # Hw water
    310     104    1  -1.112800  1.203545e+01  1.310418e+01  3.018981e+01  # Ow water
    311     104    2   0.556400  1.223082e+01  1.254669e+01  2.943664e+01  # Hw water
    312     104    2   0.556400  1.119781e+01  1.351413e+01  2.997409e+01  # Hw water
    313     105    1  -1.112800  1.778520e+01  2.411354e+00  1.482369e+01  # Ow water
    314     105    2   0.556400  1.773002e+01  2.908190e+00  1.400740e+01  # Hw water
    315     105    2   0.556400  1.775762e+01  1.494798e+00  1.454911e+01  # Hw water
    316     106    1  -1.112800  2.995367e+01  4.012317e+00  1.123695e+01  # Ow water
    317     106    2   0.556400  2.899683e+01  3.986600e+00  1.124115e+01  # Hw water
    318     106    2   0.556400  3.018956e+01  4.016674e+00  1.030928e+01  # Hw water
    319     107    1  -1.112800  2.980080e+01  1.595160e+01  6.685805e+00  # Ow water
    320     107    2   0.556400  3.019011e+01  1.518755e+01  7.111141e+00  # Hw water
    321     107    2   0.556400  3.018956e+01  1.670124e+01  7.136504e+00  # Hw water
    322     108    1  -1.112800  2.527320e+01  1.447620e+01  1.372277e+01  # Ow water
    323     108    2   0.556400  2.602418e+01  1.416394e+01  1.422749e+01  # Hw water
    324     108    2   0.556400  2.460938e+01  1.379567e+01  1.383431e+01  # Hw water
    325     109    1  -1.112800  1.363532e+01  2.116841e+01  5.165204e+00  # Ow water
    326     109    2   0.556400  1.447682e+01  2.097792e+01  5.579698e+00  # Hw water
    327     109    2   0.556400  1.384030e+01  2.125391e+01  4.234128e+00  # Hw water
    328     110    1  -1.112800  2.264869e+00  1.563979e+01  7.801389e+00  # Ow water
    329     110    2   0.556400  1.499843e+00  1.547986e+01  7.248771e+00  # Hw water
    330     110    2   0.556400  2.873526e+00  1.611605e+01  7.236641e+00  # Hw water
    331     111    1  -1.112800  3.903594e+00  9.177571e+00  2.581747e+01  # Ow water
    332     111    2   0.556400  3.437824e+00  9.162226e+00  2.665356e+01  # Hw water
    333     111    2   0.556400  3.520935e+00  8.457392e+00  2.531632e+01  # Hw water
    334     112    1  -1.112800  1.718620e+01  2.807138e+01  1.875037e+01  # Ow water
    335     112    2   0.556400  1.782247e+01  2.780303e+01  1.808752e+01  # Hw water
    336     112    2   0.556400  1.721833e+01  2.737733e+01  1.940876e+01  # Hw water
    337     113    1  -1.112800  8.009381e+00  1.332811e+01  4.323068e+00  # Ow water
    338     113    2   0.556400  7.554290e+00  1.272609e+01  3.734265e+00  # Hw water
    339     113    2   0.556400  7.436461e+00  1.339573e+01  5.086887e+00  # Hw water
    340     114    1  -1.112800  1.498373e+00  6.381118e+00  1.430645e+01  # Ow water
    341     114    2   0.556400  1.816544e+00  6.496976e+00  1.341114e+01  # Hw water
    342     114    2   0.556400  2.284382e+00  6.438157e+00  1.484974e+01  # Hw water
    343     115    1  -1.112800  2.467570e+01  9.968311e+00  4.026923e+00  # Ow water
    344     115    2   0.556400  2.471775e+01  1.088452e+01  4.300834e+00  # Hw water
    345     115    2   0.556400  2.534583e+01  9.889812e+00  3.347962e+00  # Hw water
    346     116    1  -1.112800  1.383466e+01  1.809318e+01  1.539224e+01  # Ow water