LAMMPS (23 Jun 2022 - Update 1)
####################################################
# Preprocessing Li2SO4 in water
#################### SETTING UP ####################
units real
dimension 3
newton on
boundary p p p
atom_style full

#################### VARIABLES ####################
variable Temp equal 298.15    # Temperature in K
variable Pres equal 1.0       # Pressure in atm.

variable RandomSeed equal 26 # The random seed for velocity
variable tstep equal 2.0      # 1fs
variable Ninptpre equal 10000 # Pre-initialize the NPT ensemble (very small timesteps)
variable Ninpt equal 10000000  # Initialize the NPT ensemble
variable Npnpt equal 10000000  # Production in the NPT ensemble (volume)
variable Ninvtpre equal 10000 # Pre-initialize the NVT ensemble (very small timesteps)
variable Ninvt equal 500000   # Initialize the NVT ensemble
variable Nrun equal 50000     # production in the NVT ensemble (Transport properties) 1ns
variable Nf equal 1000         # Nfreq (fix ave/time and thermo)
variable Ne equal  1         # Nevery (fix ave/time)
variable Nr equal ${Nf}/${Ne} # Nrepeat (fix ave/time)
variable Nr equal 1000/${Ne} 
variable Nr equal 1000/1 
variable NBR equal ${Npnpt}/100 # Block averaging for density (NPT)
variable NBR equal 10000000/100 
variable Nd equal ${Nrun}/10 # Frequency of outputting positions of atoms in the NVT ensemble
variable Nd equal 50000/10 

variable nb equal 10          # Number of blocks (fix ordern)
variable nbe equal 20         # Number of block elements (fix ordern)
variable Nvisc equal 5        # Nevery for viscosity (fix ordern: sample data at (Nvisc*2))
variable Ncond equal 5        # Nevery for Tconductivity (fix ordern: sample data at (Ncond*2))
variable Ndiff equal 1000     # Nevery for diffusivity (fix ordern: sample data at (Ndiff))
variable Nwrit equal 100000   # Nwrite for transport properties (fix ordern: write every (Nwrit))

variable Nrdfe equal 1000     # Nevery for RDF (fix ave/time)
variable Nrdfw equal 1000     # Nwrite for RDF (compute rdf/ext: write every (Nrdfw*Nrdfe))
variable binnum equal 2000    # Number of bins for RDF

#################### ATOM DEFINITION and FORCEFIELD ####################
read_data ./data.lmp                     # read the positions
Reading data file ...
  orthogonal box = (0 0 0) to (31.689281 31.689281 31.689281)
  2 by 4 by 4 MPI processor grid
  reading atoms ...
  3162 atoms
  scanning bonds ...
  4 = max bonds/atom
  scanning angles ...
  6 = max angles/atom
  reading bonds ...
  2108 bonds
  reading angles ...
  1108 angles
Finding 1-2 1-3 1-4 neighbors ...
  special bond factors lj:    0        0        0       
  special bond factors coul:  0        0        0       
     4 = max # of 1-2 neighbors
     3 = max # of 1-3 neighbors
     3 = max # of 1-4 neighbors
     4 = max # of special neighbors
  special bonds CPU = 0.001 seconds
  read_data CPU = 0.018 seconds
include ./forcefield.data                # read the force field
#--------INTERMOLECULAR POTENTIAL -------------------#
# ---------------Developed for Li2SO4 in water (tip4p/2005) system-----#

mass 1 15.9994 # Ow
mass 2 1.008 # Hw
mass 3 6.891  # Li  -0.01, which went to ghost
mass 4 0.05 # m ghost of lithium
mass 5 0.1 # S  Center site without weight
mass 6 23.99065 # Os (added sulfur weight)


pair_style lj/cut/tip4p/long 1 2 1 1 0.1546 10.0
kspace_style pppm/tip4p 1.0e-5
pair_modify mix arithmetic tail yes # ATC and Lorentz-Berthelot combining rules

#-----------------Combinations----------------------------
# atomtype atomtype epsilon sigma

pair_coeff 1 1 0.185200 3.1589     # Ow-Ow
pair_coeff 1 2 0.000000 0.0000     # Ow-Hw
pair_coeff 1 3 0.167459 2.12       # Ow-Li
pair_coeff 1 4 0.000000 0.0000     # Ow-m
pair_coeff 1 5 0.215246 3.35445    # Ow-S  COMPUTE BY HAND LB mix
pair_coeff 1 6 0.150335 3.40445    # Ow-Os

pair_coeff 2 2 0.000000 0.0000     # Hw-Hw
pair_coeff 2 3 0.000000 0.0000     # Hw-Li
pair_coeff 2 4 0.000000 0.0000     # Hw-m
pair_coeff 2 5 0.000000 0.0000     # Hw-S
pair_coeff 2 6 0.000000 0.0000     # Hw-Os

pair_coeff 3 3 0.103989 1.4397     # Li-Li
pair_coeff 3 4 0.000000 0.0000     # Li-m
pair_coeff 3 5 0.161291 2.49485    # Li-S   COMPUTE BY HAND LB mix
pair_coeff 3 6 0.192067 2.844850   # Li-Os

pair_coeff 4 4 0.000000 0.0000     # m-m
pair_coeff 4 5 0.000000 0.0000     # m-S
pair_coeff 4 6 0.000000 0.0000     # m-Os

pair_coeff 5 5 0.250167 3.5500     # S-S
pair_coeff 5 6 0.223762 3.6000     # S-Os  CHECK BY HAND LB mix

pair_coeff 6 6 0.200143 3.6500     # Os-Os

bond_style  harmonic
bond_coeff 1 2000 0.9572           # Ow-Hw
bond_coeff 2 1000 0.5		   # Li-m
bond_coeff 3 1000 1.490		   # S-Os

angle_style harmonic
angle_coeff 1 200 104.52           # H-Ow-H
angle_coeff 2 200 109.5           # Os-S-Os

#dihedral_style none
#improper_style none

set type 1 charge -1.1128          # O
Setting atom values ...
  1000 settings made for charge
set type 2 charge +0.5564          # OH
Setting atom values ...
  2000 settings made for charge
set type 3 charge +0.8500          # Li
Setting atom values ...
  36 settings made for charge
set type 4 charge 0		   # m
Setting atom values ...
  36 settings made for charge
set type 5 charge +0.9000          # S
Setting atom values ...
  18 settings made for charge
set type 6 charge -0.6500          # Os
Setting atom values ...
  72 settings made for charge


#################### INITIALIZATION ####################
# groups for the central atoms of water (O)

group wat type 1		# O water
1000 atoms in group wat
group Li type 3			# Lithium atom
36 atoms in group Li
group S type 5			# S sulfite group centre
18 atoms in group S

# neigbor lists
neighbor 2.0 bin
neigh_modify every 1 delay 0 check yes

# velocity-Verlet integrator
run_style verlet

# initializing velocities
velocity all create ${Temp} ${RandomSeed}
velocity all create 298.15 ${RandomSeed}
velocity all create 298.15 26

# rate of writing thermal properties to the log file
thermo_style custom step density temp press etotal
thermo_modify flush yes
thermo ${Nf}
thermo 1000

#################### 2) Initialize the NPT ensemble ####################
######### Go to the correct temperature now ant initiate that ##########
fix integrate all rigid/npt/small molecule temp ${Temp} ${Temp} 10.0 iso ${Pres} ${Pres} 100.0
fix integrate all rigid/npt/small molecule temp 298.15 ${Temp} 10.0 iso ${Pres} ${Pres} 100.0
fix integrate all rigid/npt/small molecule temp 298.15 298.15 10.0 iso ${Pres} ${Pres} 100.0
fix integrate all rigid/npt/small molecule temp 298.15 298.15 10.0 iso 1 ${Pres} 100.0
fix integrate all rigid/npt/small molecule temp 298.15 298.15 10.0 iso 1 1 100.0
  create bodies CPU = 0.001 seconds
  1054 rigid bodies with 3162 atoms
  1.4900082 = max distance from body owner to body atom

# add dump trajectory

# Initializing the whole system with very small timesteps in the NPT ensemble
timestep 0.001
run ${Ninptpre}
run 10000
PPPM initialization ...
  extracting TIP4P info from pair style
  using 12-bit tables for long-range coulomb (../kspace.cpp:342)
  G vector (1/distance) = 0.31119582
  grid = 30 30 30
  stencil order = 5
  estimated absolute RMS force accuracy = 0.0035544154
  estimated relative force accuracy = 1.0704016e-05
  using double precision KISS FFT
  3d grid and FFT values/proc = 4950 960
Generated 0 of 15 mixed pair_coeff terms from arithmetic mixing rule
Neighbor list info ...
  update every 1 steps, delay 0 steps, check yes
  max neighbors/atom: 2000, page size: 100000
  master list distance cutoff = 12.3092
  ghost atom cutoff = 12.3092
  binsize = 6.1546, bins = 6 6 6
  1 neighbor lists, perpetual/occasional/extra = 1 0 0
  (1) pair lj/cut/tip4p/long, perpetual
      attributes: half, newton on
      pair build: half/bin/newton
      stencil: half/bin/3d
      bin: standard
Per MPI rank memory allocation (min/avg/max) = 15.41 | 15.45 | 15.48 Mbytes
   Step        Density          Temp          Press          TotEng    
         0   1.0433267      291.17777     -8699470        5903.6486    
      1000   1.0427776      309.64098      73163.132      5885.9479    
      2000   1.0408075      364.35513      70638.627      5820.7755    
      3000   1.0374715      450.98075      66233.095      5702.6582    
      4000   1.0328662      561.24126      59821.651      5515.4945    
      5000   1.0271311      686.20117      51999.341      5250.9831    
      6000   1.0204356      820.97174      44751.039      4930.5493    
      7000   1.0129471      956.55112      37823.899      4550.8914    
      8000   1.0048332      1085.3556      30140.247      4117.4287    
      9000   0.99627327     1199.6453      23416.179      3630.5246    
     10000   0.98743336     1295.1382      17433.174      3104.6551    
Loop time of 25.6956 on 32 procs for 10000 steps with 3162 atoms

Performance: 0.034 ns/day, 713.768 hours/ns, 389.171 timesteps/s
99.6% CPU use with 32 MPI tasks x no OpenMP threads

MPI task timing breakdown:
Section |  min time  |  avg time  |  max time  |%varavg| %total
---------------------------------------------------------------
Pair    | 8.7519     | 10.769     | 12.755     |  35.5 | 41.91
Bond    | 0.034045   | 0.040015   | 0.049811   |   1.8 |  0.16
Kspace  | 4.8939     | 6.8973     | 8.8783     |  44.1 | 26.84
Neigh   | 0.0011252  | 0.0013153  | 0.0014289  |   0.2 |  0.01
Comm    | 1.3203     | 1.5142     | 1.6434     |   6.6 |  5.89
Output  | 0.00050374 | 0.00052852 | 0.00072996 |   0.0 |  0.00
Modify  | 5.7529     | 6.1126     | 6.3302     |   6.5 | 23.79
Other   |            | 0.3612     |            |       |  1.41

Nlocal:        98.8125 ave         112 max          85 min
Histogram: 1 3 4 5 3 2 4 5 3 2
Nghost:        4181.72 ave        4231 max        4134 min
Histogram: 2 5 2 2 4 6 2 3 4 2
Neighs:        37642.8 ave       45671 max       31393 min
Histogram: 2 4 6 4 3 3 4 4 1 1

Total # of neighbors = 1204569
Ave neighs/atom = 380.95161
Ave special neighs/atom = 2.0341556
Neighbor list builds = 1
Dangerous builds = 0
timestep 0.01
run ${Ninptpre}
run 10000
PPPM initialization ...
  extracting TIP4P info from pair style
  using 12-bit tables for long-range coulomb (../kspace.cpp:342)
  G vector (1/distance) = 0.30987342
  grid = 30 30 30
  stencil order = 5
  estimated absolute RMS force accuracy = 0.0037541502
  estimated relative force accuracy = 1.1305512e-05
  using double precision KISS FFT
  3d grid and FFT values/proc = 4950 960
Generated 0 of 15 mixed pair_coeff terms from arithmetic mixing rule
Per MPI rank memory allocation (min/avg/max) = 15.41 | 15.45 | 15.48 Mbytes
   Step        Density          Temp          Press          TotEng    
     10000   0.98743336     1295.1382      6952.8712      3104.6569    
     11000   0.9074685      1219.0317     -8413.6063     -2071.9369    
     12000   0.86166524     881.89689     -10482.229     -4829.3108    
     13000   0.84313521     740.1263      -10372.12      -6609.8258    
     14000   0.84558954     607.69921     -8406.0547     -7898.0887    
     15000   0.86411824     553.71985     -7109.5819     -8896.9178    
     16000   0.89539992     517.04571     -5435.4336     -9767.4916    
     17000   0.93509213     500.03101     -3192.4275     -10513.321    
     18000   0.9774488      477.863       -593.93624     -11153.237    
     19000   1.0170445      461.20177      1453.9787     -11671.998    
     20000   1.050631       449.10439      2306.6877     -12140.731    
Loop time of 23.8363 on 32 procs for 10000 steps with 3162 atoms

Performance: 0.362 ns/day, 66.212 hours/ns, 419.529 timesteps/s
99.6% CPU use with 32 MPI tasks x no OpenMP threads

MPI task timing breakdown:
Section |  min time  |  avg time  |  max time  |%varavg| %total
---------------------------------------------------------------
Pair    | 7.947      | 9.671      | 11.773     |  32.9 | 40.57
Bond    | 0.035071   | 0.039598   | 0.043853   |   1.4 |  0.17
Kspace  | 4.8029     | 6.7438     | 8.443      |  39.0 | 28.29
Neigh   | 0.013714   | 0.014495   | 0.015779   |   0.5 |  0.06
Comm    | 1.194      | 1.3854     | 1.502      |   6.4 |  5.81
Output  | 0.0003713  | 0.00038551 | 0.00058732 |   0.0 |  0.00
Modify  | 5.3246     | 5.6859     | 5.8891     |   6.7 | 23.85
Other   |            | 0.2958     |            |       |  1.24

Nlocal:        98.8125 ave         112 max          86 min
Histogram: 1 5 3 5 2 4 6 1 3 2
Nghost:        4146.59 ave        4173 max        4113 min
Histogram: 2 0 3 4 2 4 5 8 1 3
Neighs:        37775.9 ave       45758 max       30852 min
Histogram: 2 4 3 6 3 4 3 4 2 1

Total # of neighbors = 1208830
Ave neighs/atom = 382.29918
Ave special neighs/atom = 2.0341556
Neighbor list builds = 14
Dangerous builds = 0
timestep 0.1
run ${Ninptpre}
run 10000
PPPM initialization ...
  extracting TIP4P info from pair style
  using 12-bit tables for long-range coulomb (../kspace.cpp:342)
  G vector (1/distance) = 0.31136281
  grid = 30 30 30
  stencil order = 5
  estimated absolute RMS force accuracy = 0.0035298993
  estimated relative force accuracy = 1.0630187e-05
  using double precision KISS FFT
  3d grid and FFT values/proc = 4950 960
Generated 0 of 15 mixed pair_coeff terms from arithmetic mixing rule
Per MPI rank memory allocation (min/avg/max) = 15.41 | 15.45 | 15.48 Mbytes
   Step        Density          Temp          Press          TotEng    
     20000   1.050631       449.10439      2550.9616     -12140.732    
     21000   1.151738       320.5965      -106.80808     -15260.188    
     22000   1.1492367      311.04461     -24.709416     -15955.15     
     23000   1.1250661      300.00451     -346.93542     -16205.986    
     24000   1.1138829      293.39103     -1508.0041     -16391.992    
     25000   1.1136678      306.00262      511.31077     -16424.583    
     26000   1.1112485      296.27933      754.86486     -16574.291    
     27000   1.094692       295.26878     -666.37861     -16512.429    
     28000   1.0937799      296.44701      351.33547     -16464.147    
     29000   1.0856796      297.83074     -174.51366     -16549.524    
     30000   1.0970773      299.4265       296.67948     -16635.195    
Loop time of 27.0874 on 32 procs for 10000 steps with 3162 atoms

Performance: 3.190 ns/day, 7.524 hours/ns, 369.175 timesteps/s
99.6% CPU use with 32 MPI tasks x no OpenMP threads

MPI task timing breakdown:
Section |  min time  |  avg time  |  max time  |%varavg| %total
---------------------------------------------------------------
Pair    | 10.549     | 12.004     | 13.299     |  18.8 | 44.32
Bond    | 0.036292   | 0.040455   | 0.043691   |   0.8 |  0.15
Kspace  | 5.18       | 6.5142     | 7.9481     |  26.0 | 24.05
Neigh   | 0.098158   | 0.10458    | 0.11283    |   1.2 |  0.39
Comm    | 1.3888     | 1.5758     | 1.7192     |   6.5 |  5.82
Output  | 0.00033607 | 0.00035063 | 0.00055661 |   0.0 |  0.00
Modify  | 6.128      | 6.4976     | 6.7301     |   6.2 | 23.99
Other   |            | 0.3503     |            |       |  1.29

Nlocal:        98.8125 ave         110 max          90 min
Histogram: 3 1 5 5 3 4 6 1 2 2
Nghost:        4323.44 ave        4361 max        4286 min
Histogram: 5 6 2 1 1 2 2 4 6 3
Neighs:        40234.6 ave       45298 max       36569 min
Histogram: 6 1 6 4 3 2 4 1 3 2

Total # of neighbors = 1287506
Ave neighs/atom = 407.1809
Ave special neighs/atom = 2.0341556
Neighbor list builds = 86
Dangerous builds = 0
timestep 0.2
run ${Ninptpre}
run 10000
PPPM initialization ...
  extracting TIP4P info from pair style
  using 12-bit tables for long-range coulomb (../kspace.cpp:342)
  G vector (1/distance) = 0.31239535
  grid = 30 30 30
  stencil order = 5
  estimated absolute RMS force accuracy = 0.0033817264
  estimated relative force accuracy = 1.0183969e-05
  using double precision KISS FFT
  3d grid and FFT values/proc = 4950 960
Generated 0 of 15 mixed pair_coeff terms from arithmetic mixing rule
Per MPI rank memory allocation (min/avg/max) = 15.41 | 15.45 | 15.48 Mbytes
   Step        Density          Temp          Press          TotEng    
     30000   1.0970773      299.4265       1876.7214     -16635.195    
     31000   1.0894396      302.38728      369.84323     -16620.84     
     32000   1.094352       295.19745      446.3486      -16682.687    
     33000   1.0912144      304.86866      131.4466      -16657.419    
     34000   1.0883036      302.09537      814.49994     -16708.608    
     35000   1.0912751      285.39067      422.05172     -16811.002    
     36000   1.088879       298.95898      344.46858     -16723.243    
     37000   1.0937048      292.2366       43.979526     -16771.066    
     38000   1.0989394      294.37391      364.77702     -16676.546    
     39000   1.0861667      298.06602      312.77078     -16693.884    
     40000   1.0845827      298.59545     -225.08252     -16734.945    
Loop time of 27.1501 on 32 procs for 10000 steps with 3162 atoms

Performance: 6.365 ns/day, 3.771 hours/ns, 368.323 timesteps/s
99.6% CPU use with 32 MPI tasks x no OpenMP threads

MPI task timing breakdown:
Section |  min time  |  avg time  |  max time  |%varavg| %total
---------------------------------------------------------------
Pair    | 10.365     | 11.941     | 12.975     |  16.7 | 43.98
Bond    | 0.036003   | 0.040438   | 0.043921   |   1.0 |  0.15
Kspace  | 5.4742     | 6.4982     | 8.0482     |  22.8 | 23.93
Neigh   | 0.22062    | 0.23495    | 0.25453    |   1.9 |  0.87
Comm    | 1.3828     | 1.575      | 1.7124     |   6.6 |  5.80
Output  | 0.0003377  | 0.00035259 | 0.00056227 |   0.0 |  0.00
Modify  | 6.1522     | 6.5166     | 6.7493     |   6.1 | 24.00
Other   |            | 0.3433     |            |       |  1.26

Nlocal:        98.8125 ave         110 max          87 min
Histogram: 4 2 0 4 7 1 4 5 3 2
Nghost:        4290.06 ave        4327 max        4250 min
Histogram: 3 2 1 4 7 2 4 5 1 3
Neighs:        39821.4 ave       45481 max       33957 min
Histogram: 3 2 6 1 2 3 6 4 4 1

Total # of neighbors = 1274286
Ave neighs/atom = 403
Ave special neighs/atom = 2.0341556
Neighbor list builds = 202
Dangerous builds = 0
timestep 0.5
run ${Ninptpre}
run 10000
PPPM initialization ...
  extracting TIP4P info from pair style
  using 12-bit tables for long-range coulomb (../kspace.cpp:342)
  G vector (1/distance) = 0.31212245
  grid = 30 30 30
  stencil order = 5
  estimated absolute RMS force accuracy = 0.0034203246
  estimated relative force accuracy = 1.0300206e-05
  using double precision KISS FFT
  3d grid and FFT values/proc = 4950 960
Generated 0 of 15 mixed pair_coeff terms from arithmetic mixing rule
Per MPI rank memory allocation (min/avg/max) = 15.41 | 15.45 | 15.48 Mbytes
   Step        Density          Temp          Press          TotEng    
     40000   1.0845827      298.59545      223.58654     -16734.944    
     41000   1.0855526      302.35421     -431.17517     -16716.431    
     42000   1.0956062      302.01286     -171.40696     -16833.149    
     43000   1.086976       298.05675      463.34284     -16825.758    
     44000   1.0680818      296.3063       39.080571     -16848.064    
     45000   1.0797638      302.41943      267.07616     -16737.248    
     46000   1.06987        299.88544      297.97524     -16734.588    
     47000   1.077142       297.10866     -260.97955     -16740.035    
     48000   1.0777446      301.3865      -215.7477      -16782.225    
     49000   1.0757986      306.77579      944.29553     -16742.785    
     50000   1.083636       292.15455     -68.629093     -16865.688    
Loop time of 27.9489 on 32 procs for 10000 steps with 3162 atoms

Performance: 15.457 ns/day, 1.553 hours/ns, 357.796 timesteps/s
99.6% CPU use with 32 MPI tasks x no OpenMP threads

MPI task timing breakdown:
Section |  min time  |  avg time  |  max time  |%varavg| %total
---------------------------------------------------------------
Pair    | 10.878     | 11.923     | 13.231     |  17.5 | 42.66
Bond    | 0.035212   | 0.040543   | 0.0439     |   1.0 |  0.15
Kspace  | 5.4443     | 6.7398     | 7.7495     |  23.2 | 24.11
Neigh   | 0.59456    | 0.63224    | 0.6847     |   3.1 |  2.26
Comm    | 1.4185     | 1.6256     | 1.7619     |   6.8 |  5.82
Output  | 0.00033176 | 0.00035144 | 0.00056293 |   0.0 |  0.00
Modify  | 6.273      | 6.6325     | 6.8724     |   6.0 | 23.73
Other   |            | 0.3549     |            |       |  1.27

Nlocal:        98.8125 ave         115 max          87 min
Histogram: 4 3 3 6 2 7 4 0 2 1
Nghost:        4268.28 ave        4308 max        4221 min
Histogram: 2 2 1 4 4 6 3 4 4 2
Neighs:        39773.2 ave       47106 max       33823 min
Histogram: 3 1 7 3 4 4 5 2 1 2

Total # of neighbors = 1272741
Ave neighs/atom = 402.51139
Ave special neighs/atom = 2.0341556
Neighbor list builds = 537
Dangerous builds = 0
reset_timestep 0

# continuing the initialization with the final value of timestep
unfix integrate
fix integrate all rigid/npt/small molecule temp ${Temp} ${Temp} 100.0 iso ${Pres} ${Pres} 1000.0
fix integrate all rigid/npt/small molecule temp 298.15 ${Temp} 100.0 iso ${Pres} ${Pres} 1000.0
fix integrate all rigid/npt/small molecule temp 298.15 298.15 100.0 iso ${Pres} ${Pres} 1000.0
fix integrate all rigid/npt/small molecule temp 298.15 298.15 100.0 iso 1 ${Pres} 1000.0
fix integrate all rigid/npt/small molecule temp 298.15 298.15 100.0 iso 1 1 1000.0
  create bodies CPU = 0.000 seconds
  1054 rigid bodies with 3162 atoms
  1.4900412 = max distance from body owner to body atom

timestep ${tstep}
timestep 2
run ${Ninpt}
run 10000000
PPPM initialization ...
  extracting TIP4P info from pair style
  using 12-bit tables for long-range coulomb (../kspace.cpp:342)
  G vector (1/distance) = 0.31210163
  grid = 30 30 30
  stencil order = 5
  estimated absolute RMS force accuracy = 0.0034232856
  estimated relative force accuracy = 1.0309123e-05
  using double precision KISS FFT
  3d grid and FFT values/proc = 4950 960
Generated 0 of 15 mixed pair_coeff terms from arithmetic mixing rule
Per MPI rank memory allocation (min/avg/max) = 15.41 | 15.45 | 15.48 Mbytes
   Step        Density          Temp          Press          TotEng    
         0   1.083636       292.15455      1403.5656     -16865.688    
      1000   1.0822121      299.88008      543.76377     -16821.218    
      2000   1.0731371      304.07883     -33.023861     -16712.939    
      3000   1.0956747      286.85139      92.309503     -16794.463    
      4000   1.0769951      286.14385      514.57289     -16896.709    
      5000   1.0844547      300.68954      833.51755     -16863.524    
      6000   1.0801787      294.56773      709.14369     -16781.222    
      7000   1.0767617      297.13954     -147.26312     -16798.608    
      8000   1.0758615      299.36797     -99.035565     -16781.201    
      9000   1.0829715      285.50284      885.63198     -17020.905    
     10000   1.0791636      294.62591      72.930938     -16866.22     
     11000   1.0788385      293.95247      188.03528     -16839.933    
     12000   1.0764159      300.85298     -301.92593     -16894.933    
     13000   1.0956698      290.10679      571.6776      -16865.581    
     14000   1.0817839      300.63552      356.66623     -16822.965    
     15000   1.0721415      285.87657      278.8534      -16894.757    
     16000   1.0736683      302.98485     -602.3029      -16782.341    
     17000   1.0644367      298.09692     -697.19208     -16686.008    
     18000   1.097556       295.84569      780.17981     -16882.281    
     19000   1.0886084      299.65217      96.483611     -16715.407    
     20000   1.0692274      285.33414     -66.294113     -16861.916    
     21000   1.0781419      297.09611      84.406271     -16827.37     
     22000   1.0923788      296.21699      885.94684     -16869.326    
     23000   1.0799479      302.336       -209.99608     -16841.615    
     24000   1.0817053      297.97835     -225.62375     -16766.372    
     25000   1.075553       296.23422     -1187.4307     -16891.778    
     26000   1.0926182      296.13688      920.00844     -16824.5      
     27000   1.087828       294.34743     -431.02506     -16884.374    
     28000   1.079816       293.37717      570.78598     -16897.135    
     29000   1.0841996      300.28678      706.70128     -16906.059    
     30000   1.0773366      301.84266     -613.56056     -16798.234    
     31000   1.0860704      306.71502      11.594894     -16753.9      
     32000   1.0782815      303.58356      330.91007     -16857.331    
     33000   1.0885108      300.17193      536.48703     -16827.074    
     34000   1.0843868      295.52271      0.93670454    -16859.561    
     35000   1.0857417      287.59565      1022.7344     -16913.741    
     36000   1.0758606      295.843       -179.3436      -16851.949    
     37000   1.0748048      305.66309      366.43259     -16721.441    
     38000   1.084458       293.05018     -340.7571      -16787.851    
     39000   1.0878223      280.07976      610.71711     -16841.911    
     40000   1.0913337      294.2228       132.60292     -16811.958    
     41000   1.084071       295.35052     -210.80891     -16804.921    
     42000   1.090633       298.43394      35.900529     -16858.159    
     43000   1.0891734      285.27245      357.74613     -16898.591    
     44000   1.0758319      291.69798     -969.89971     -16892.433    
     45000   1.0913808      286.61606      354.5191      -16865.327    
     46000   1.0826003      294.29665      592.61212     -16814.753    
     47000   1.0883169      297.1888       764.77727     -16794.461    
     48000   1.0811166      294.18884     -516.58247     -16811.38     
     49000   1.0741333      295.39981     -1007.4873     -16768.17     
     50000   1.077188       307.32839      32.104        -16804.371    
     51000   1.0811669      302.53982      1183.4318     -16812.052    
     52000   1.0776162      294.09295      68.369933     -16856.6      
     53000   1.0903187      299.17828     -236.84217     -16777.334    
     54000   1.0824944      307.40256     -224.50161     -16829.297    
     55000   1.0697592      299.90913     -404.66145     -16812.096    
     56000   1.0616241      288.75101     -151.4283      -16861.509    
     57000   1.0820664      294.55509      595.28449     -16834.924    
     58000   1.0880335      297.74037      228.44576     -16826.73     
     59000   1.0679751      292.04719     -681.01224     -16813.189    
     60000   1.082377       290.17324      708.18447     -16843.279    
     61000   1.0747541      284.82181      260.64735     -16896.701    
     62000   1.0804729      297.50884      15.395857     -16832.685    
     63000   1.0856495      292.9041      -246.62711     -16862.722    
     64000   1.0800988      298.14231     -572.0271      -16814.594    
     65000   1.0796916      293.8861      -301.71053     -16809.025    
     66000   1.0810859      297.7323       272.90114     -16807.552    
     67000   1.0816873      299.15336      254.91503     -16803.87     
     68000   1.0715029      291.13019      75.281862     -16855.476    
     69000   1.0711479      298.6677      -799.18759     -16810.444    
     70000   1.0766716      292.97601     -73.367433     -16823.72     
     71000   1.0743888      293.4728      -248.32716     -16805.682    
     72000   1.0766171      297.01901     -35.08249      -16809.218    
     73000   1.0918078      285.44889      680.57086     -16868.716    
     74000   1.0775813      286.73511     -900.19381     -16799.771    
     75000   1.0678614      299.17744     -338.98417     -16776.007    
     76000   1.0702233      300.1023      -193.3084      -16755.728    
     77000   1.0723148      293.79117      57.867425     -16782.347    
     78000   1.0787155      301.35541     -82.156926     -16736.54     
     79000   1.0701919      301.02633     -29.873326     -16790.707    
     80000   1.0838512      298.39877      30.974648     -16792.482    
     81000   1.0832449      292.34136      106.57548     -16827.373    
     82000   1.0817542      299.00244     -179.26491     -16828.683    
     83000   1.0904384      303.36749      350.98813     -16833.941    
     84000   1.0822769      293.45691     -131.40867     -16865.707    
     85000   1.0845467      295.26389     -346.17371     -16854.118    
     86000   1.0713827      293.16489     -61.801852     -16783.784    
     87000   1.0797051      295.90069     -158.76734     -16933.162    
     88000   1.0770331      295.41016     -291.69448     -16780.112    
     89000   1.0768196      294.42055     -459.16861     -16812.129    
     90000   1.0722844      295.28685     -445.81225     -16827.946    
     91000   1.0752896      303.64263      163.81075     -16807.394    
     92000   1.0719853      285.69033      571.42063     -16911.846    
     93000   1.0609017      286.79865     -984.90897     -16836.75     
     94000   1.0837406      296.66533     -136.22692     -16820.362    
     95000   1.092842       303.32367      159.04938     -16873.77     
     96000   1.0834326      295.59603      299.19271     -16798.7      
     97000   1.1006598      291.32115      886.32816     -16821.554    
     98000   1.0852146      296.94834      273.00945     -16799.112    
     99000   1.0918681      302.8468      -294.76509     -16716.539    
    100000   1.0692055      301.97833     -155.42098     -16765.563    
    101000   1.0793106      295.99406      250.84441     -16786.992    
    102000   1.0841734      299.01687     -543.52186     -16927.381    
    103000   1.0822195      300.77369     -582.71528     -16769.549    
    104000   1.0766714      286.48962     -131.83357     -16957.549    
    105000   1.0746578      292.34375     -312.78149     -16942.647    
    106000   1.0837055      298.94217      277.86033     -16737.717    
    107000   1.069463       295.67619     -302.38559     -16865.328    
    108000   1.075624       299.72115     -430.75652     -16849.16     
    109000   1.0747185      296.68598      414.66846     -16818.85     
    110000   1.0806943      286.37592      115.16614     -16762.272    
    111000   1.084924       292.55036      577.91298     -16835.282    
    112000   1.0869253      287.72937     -542.8131      -16930.905    
    113000   1.0813024      292.33235     -334.96559     -16896.708    
    114000   1.0925816      288.72035     -56.218578     -16949.271    
    115000   1.0726522      292.14697     -260.81063     -16768.959    
    116000   1.0776407      298.55019     -721.53143     -16801.713    
    117000   1.0730973      298.08229      623.28236     -16722.307    
    118000   1.0762929      295.66226      400.26937     -16852.891    
    119000   1.0732976      294.25616     -316.41511     -16886.08     
    120000   1.0820528      299.21532      385.12301     -16796.151    
    121000   1.0877025      299.22804     -621.62523     -16820.325    
    122000   1.094771       300.11758      733.31625     -16763.69     
    123000   1.0869084      294.37449      766.77814     -16892.928    
    124000   1.0893129      303.36275      657.27424     -16753.953    
    125000   1.0768189      295.94945     -252.96956     -16782.755    
    126000   1.070891       295.53874      778.30768     -16830.156    
    127000   1.0785761      295.16553      594.45078     -16851.435    
    128000   1.0843657      296.01407      734.47154     -16836.34     
    129000   1.0856113      302.78272      133.39883     -16760.387    
    130000   1.0820656      291.92273     -815.05191     -16935.424    
    131000   1.0831397      295.42522      335.60014     -16781.84     
    132000   1.0909814      297.91585      841.39101     -16822.626    
    133000   1.0815641      297.91669     -168.46727     -16858.192    
    134000   1.0896746      298.30206      639.05066     -16877.717    
    135000   1.0741613      294.17807     -378.72941     -16898.056    
    136000   1.0768171      293.37498      811.17761     -16898.04     
    137000   1.0751831      303.72229     -78.79121      -16866.733    
    138000   1.0686951      302.7453      -167.35055     -16790.738    
    139000   1.0719191      294.52522     -691.79506     -16794.714    
    140000   1.0823995      294.69811     -239.40845     -16790.656    
    141000   1.0905415      301.05887      924.07412     -16722.797    
    142000   1.0795972      301.65884      227.69253     -16733.299    
    143000   1.0931334      302.99541      530.07954     -16858.85     
    144000   1.074423       299.36128     -279.52727     -16885.27     
    145000   1.0821524      293.90899     -422.75987     -16793.862    
    146000   1.0669675      298.04278     -441.65647     -16766.03     
    147000   1.0776716      300.53892     -408.34465     -16868.592    
    148000   1.0801098      298.85884     -271.54503     -16827.446    
    149000   1.0921169      300.51758      263.94423     -16753.779    
    150000   1.0861103      293.44625     -513.5934      -16928.31     
    151000   1.0663903      298.73937      183.59226     -16757.325    
    152000   1.0685954      288.97526     -120.04507     -16847.849    
    153000   1.0870689      296.47366      164.3752      -16717.047    
    154000   1.0854653      286.40504      325.26745     -16901.359    
    155000   1.0901332      303.07591      119.08506     -16810.046    
    156000   1.0792384      300.56235     -149.60356     -16753.985    
    157000   1.0694186      296.68898      249.10455     -16769.292    
    158000   1.0757329      295.42143      643.7718      -16830.481    
    159000   1.0878411      291.90213     -4.0163262     -16967.296    
    160000   1.0716694      302.81055     -490.88851     -16756.317    
    161000   1.0785021      293.88628      158.1174      -16957.627    
    162000   1.0784808      300.41004      285.0835      -16860.849    
    163000   1.070003       300.73889     -425.31687     -16868.615    
    164000   1.0876416      301.18618      205.12107     -16777.614    
    165000   1.0714814      292.33801      25.862614     -16753.366    
    166000   1.0799482      295.81663     -128.7473      -16961.432    
    167000   1.0778161      296.44908      585.18797     -16880.445    
    168000   1.0824063      293.53833     -564.8111      -16909.719    
    169000   1.0829915      292.94652     -118.20864     -16799.088    
    170000   1.0751828      302.75779     -423.11167     -16743.706    
    171000   1.0712989      302.0064      -258.57302     -16718.042    
    172000   1.0743597      303.67855     -161.26686     -16679.579    
    173000   1.0745316      295.31664     -599.23635     -16785.821    
    174000   1.0857631      299.8996       59.452999     -16842.833    
    175000   1.0879887      295.23091     -612.42667     -16885.179    
    176000   1.0701507      292.6014       121.99247     -16862.625    
    177000   1.0690461      307.26594      142.22599     -16801.517    
    178000   1.0851828      295.30136     -71.179365     -16863.01     
    179000   1.067303       303.99937      170.03647     -16836.18     
    180000   1.065603       305.65337     -653.92503     -16793.028    
    181000   1.0826565      303.24285      759.35115     -16700.584    
    182000   1.0762531      293.16197     -417.88054     -16809.693    
    183000   1.0824001      290.49272      65.549391     -16806.643    
    184000   1.0715506      296.30819     -831.965       -16803.643    
    185000   1.072598       302.01291     -465.54162     -16808.165    
    186000   1.0818867      296.61498      334.7018      -16806.976    
    187000   1.0703953      290.62223     -511.44198     -16884.128    
    188000   1.0744545      302.75597      287.646       -16794.382    
    189000   1.0793677      291.70976      390.2347      -16840.681    
    190000   1.1011036      290.65715      1247.0586     -16969.781    
    191000   1.1014227      301.15124      887.68013     -16760.656    
    192000   1.0970913      303.58096      25.899305     -16830.801    
    193000   1.0805372      298.67303      159.92196     -16682.233    
    194000   1.080892       297.97636      574.13889     -16779.52     
    195000   1.0911258      298.5021       347.9541      -16899.328    
    196000   1.0834146      291.34775      537.56383     -16865.659    
    197000   1.0858601      292.32909      194.08356     -16829.185    
    198000   1.0901296      297.83346      507.96956     -16813.701    
    199000   1.0811736      290.52199     -158.86867     -16901.417    
    200000   1.077769       297.7609      -311.82335     -16812.087    
    201000   1.0842821      290.41661      341.78492     -16868.667    
    202000   1.0807569      297.89444      523.05591     -16796.016    
    203000   1.0939492      292.3699       1511.8193     -16911.726    
    204000   1.0888154      295.92899     -189.60464     -16773.851    
    205000   1.0881885      298.03366      530.21737     -16880.42     
    206000   1.0864329      289.85119      996.43639     -16911.045    
    207000   1.0814812      299.42118      470.60057     -16771.658    
    208000   1.0902921      287.34148      1651.9009     -16838.15     
    209000   1.0802995      296.28028     -591.54438     -16733.23     
    210000   1.076905       300.74134     -83.880685     -16779.846    
    211000   1.0672364      305.88828     -329.94789     -16666.538    
    212000   1.0728047      296.69086     -535.87751     -16801.198    
    213000   1.0748613      297.71287     -407.70785     -16784.935    
    214000   1.0666586      292.0714      -671.26541     -16820.721    
    215000   1.0697462      296.82052      47.090722     -16739.128    
    216000   1.0697607      291.37631     -252.80546     -16758.856    
    217000   1.0862776      296.24126      940.80478     -16846.125    
    218000   1.0859886      297.84449      316.13648     -16809.268    
    219000   1.0792978      292.55535      25.183817     -16805.876    
    220000   1.0745174      300.03805      236.99611     -16902.887    
    221000   1.0748883      300.29652     -94.575628     -16787.456    
    222000   1.0871127      294.31725      72.748374     -16833.059    
    223000   1.081896       296.52162      261.96311     -16868.777    
    224000   1.0909096      289.29991     -274.44345     -16940.465    
    225000   1.0881162      292.93439     -25.376542     -16864.909    
    226000   1.084798       299.84337     -721.17697     -16821.844    
    227000   1.077591       293.34738     -105.54277     -16822.583    
    228000   1.0863041      295.59168     -417.05808     -16880.99     
    229000   1.0835403      288.4955      -762.50201     -16872.018    
    230000   1.0848797      293.99785      194.03119     -16882.443    
    231000   1.087473       298.88297      167.10597     -16811.817    
    232000   1.081229       298.50478      94.410928     -16836.676    
    233000   1.0842963      299.62463     -820.57807     -16857.219    
    234000   1.0864212      298.10327      23.200648     -16801.29     
    235000   1.0938208      287.55756      21.936641     -16819.9      
    236000   1.0879203      290.12098     -180.97198     -16757.647    
    237000   1.0916605      298.70625      42.01159      -16788.937    
    238000   1.0794947      294.47077     -641.67161     -16871.511    
    239000   1.0845594      284.16835     -153.11287     -16875.939    
    240000   1.073878       296.51321     -441.94235     -16850.451    
    241000   1.0841203      302.61942      280.57352     -16829.218    
    242000   1.0770691      293.44669     -225.34158     -16857.472    
    243000   1.0668639      302.55857      538.78644     -16713.88     
    244000   1.0868293      298.70738      87.013009     -16754.641    
    245000   1.0744664      300.94648      477.98317     -16739.027    
    246000   1.0867304      289.00953      380.56586     -16897.862    
    247000   1.0868973      301.4313      -30.338469     -16784.815    
    248000   1.0871372      292.37015     -100.11307     -16838.504    
    249000   1.0832836      304.21862      129.87676     -16647.775    
    250000   1.0801074      290.9996       21.438871     -16844.328    
    251000   1.0853573      295.58803      144.74178     -16809.02     
    252000   1.0804029      295.58605     -104.16837     -16884.926    
    253000   1.0831031      292.35131      235.70455     -16808.587    
    254000   1.0718966      294.65156     -388.82487     -16752.942    
    255000   1.081267       293.08592      353.4406      -16860.566    
    256000   1.0937999      297.21425      601.82032     -16755.32     
    257000   1.0732748      291.65326      266.91046     -16887.425    
    258000   1.0880364      293.00759      650.14923     -16792.695    
    259000   1.0844556      297.72417      259.59531     -16855.78     
    260000   1.0741274      291.88223     -379.41629     -16826.558    
    261000   1.088633       299.85379     -125.12553     -16765.505    
    262000   1.0585981      294.24641     -965.96334     -16807.116    
    263000   1.0690661      301.51321     -731.64265     -16786.251    
    264000   1.071779       301.10935     -145.50219     -16829.24     
    265000   1.0850442      289.79701      750.90658     -16874.574    
    266000   1.0743989      289.55783     -428.49682     -16756.641    
    267000   1.0773123      299.59105      12.982658     -16746.913    
    268000   1.0819354      309.07701      580.67785     -16795.523    
    269000   1.070461       297.28001     -955.4936      -16791.248    
    270000   1.0753845      286.66403      15.759087     -16900.892    
    271000   1.0841313      297.27235      467.25969     -16808.773    
    272000   1.0657263      297.97541     -929.21852     -16808.556    
    273000   1.0819684      296.03456      394.67309     -16846.71     
    274000   1.0812145      300.86477      446.22232     -16846.55     
    275000   1.0821551      296.26054      288.12851     -16858.883    
    276000   1.062749       294.0361       38.787061     -16705.985    
    277000   1.0673049      292.76892     -462.84369     -16856.906    
    278000   1.0635958      295.08968      63.050897     -16811.598    
    279000   1.0717191      295.90455     -250.47402     -16803.717    
    280000   1.0813213      298.25488     -323.64656     -16835.045    
    281000   1.0687593      294.78022     -1211.1041     -16793.918    
    282000   1.0600678      296.41276      27.684429     -16803.196    
    283000   1.0621697      290.28098      208.44352     -16908.834    
    284000   1.0843229      294.55619     -143.68612     -16775.606    
    285000   1.0616669      298.764       -973.94361     -16781.935    
    286000   1.0839548      302.80118     -567.40655     -16827.49     
    287000   1.0914646      300.37003      562.34175     -16816.669    
    288000   1.082741       299.88707      193.38377     -16751.115    
    289000   1.0710104      297.96595     -190.45644     -16779.449    
    290000   1.0794374      300.89231     -291.59045     -16784.222    
    291000   1.0821658      306.77642      569.37124     -16740.623    
    292000   1.0840255      290.49073      82.225807     -16894.818    
    293000   1.0948314      289.72536      260.0383      -16901.226    
    294000   1.0881137      298.78547     -576.29486     -16802.184    
    295000   1.0845562      295.85895     -321.31784     -16861.923    
    296000   1.0718727      296.58799     -271.56735     -16870.201    
    297000   1.080011       294.34893      37.234214     -16761.444    
    298000   1.0824359      310.41118     -211.12439     -16684.371    
    299000   1.0877125      303.8          102.36249     -16717.432    
    300000   1.0893873      307.25755      570.19312     -16710.911    
    301000   1.0990085      299.33119      1176.8821     -16735.13     
    302000   1.0800114      303.3829      -198.44101     -16738.706    
    303000   1.0737002      294.00706     -329.03494     -16915.353    
    304000   1.0754816      295.74346     -52.578659     -16869.133    
    305000   1.0628345      300.91939     -92.985697     -16768.603    
    306000   1.0687902      289.12433     -507.08354     -16863.591    
    307000   1.0721769      293.06452     -853.07347     -16911.956    
    308000   1.0809818      303.56257     -150.07171     -16709.574    
    309000   1.0740719      295.16393     -95.73187      -16889.716    
    310000   1.0758173      297.03649     -733.95052     -16861.035    
    311000   1.0828572      296.38435     -568.53141     -16842.043    
    312000   1.0966149      292.84019      115.83371     -16842.475    
    313000   1.1002579      297.75317     -65.169544     -16744.131    
    314000   1.068494       299.71185     -832.30597     -16630.209    
    315000   1.0850486      290.88579     -59.885406     -16828.511    
    316000   1.0810205      287.18828      291.63576     -16893.331    
    317000   1.0864812      295.10782     -585.63764     -16804.145    
    318000   1.0780162      301.63329      34.12403      -16697.955    
    319000   1.0865219      297.64149      293.49112     -16827.396    
    320000   1.08561        295.25279     -471.30035     -16832.17     
    321000   1.0885512      291.40176     -892.97814     -16853.205    
    322000   1.0836615      287.91229      378.28765     -16837.62     
    323000   1.076468       301.87254     -1692.8801     -16783.487    
    324000   1.070222       301.27503     -1006.9741     -16710.669    
    325000   1.077056       292.56484      8.6880921     -16834.613    
    326000   1.0946788      292.86595      476.83209     -16805.379    
    327000   1.0826296      288.13117     -102.10562     -16858.668    
    328000   1.0863641      295.62305      14.306934     -16826.634    
    329000   1.082371       299.11307      573.94392     -16791.476    
    330000   1.0727288      284.80768     -479.81245     -16851.184    
    331000   1.0793168      308.67836      89.570648     -16673.599    
    332000   1.0710728      295.65761     -327.11625     -16811.625    
    333000   1.0858891      287.93031     -58.763023     -16974.106    
    334000   1.0910628      301.70035      406.73987     -16929.975    
    335000   1.0892165      302.96037      499.62426     -16777.471    
    336000   1.0732488      304.50715      290.13615     -16789.038    
    337000   1.0790584      292.2796       163.26794     -16866.975    
    338000   1.0785523      296.36079     -110.57194     -16906.498    
    339000   1.079074       280.63455      195.89066     -16897.237    
    340000   1.0758813      297.94497     -198.14241     -16910.722    
    341000   1.0830111      299.59699      93.67533      -16790.868    
    342000   1.0798974      296.37034      663.28373     -16840.554    
    343000   1.076092       299.33234      135.76109     -16829.28     
    344000   1.082767       299.24885     -404.50509     -16758.421    
    345000   1.0888692      292.69208     -154.61218     -16820.315    
    346000   1.0798054      296.2271       16.719798     -16800.19     
    347000   1.0779811      293.29857      455.00128     -16820.601    
    348000   1.0761011      308.74521     -125.49162     -16767.649    
    349000   1.090924       294.16614     -1.2409232     -16881.78     
    350000   1.0862365      292.55112      57.875441     -16828.952    
    351000   1.0788693      292.18448      331.29987     -16920.99     
    352000   1.0829274      303.95899     -536.00781     -16886.929    
    353000   1.0808791      295.27804      328.53656     -16911.584    
    354000   1.0652642      291.39665     -449.70972     -16854.368    
    355000   1.0743354      296.42832     -805.53461     -16902.897    
    356000   1.0703132      294.26026     -164.22397     -16895.033    
    357000   1.082252       299.86292     -241.64264     -16821.556    
    358000   1.0877192      291.58538     -188.99226     -16904.6      
    359000   1.0773535      287.43427      15.489528     -16929.636    
    360000   1.0672145      293.54116     -230.69451     -16779.027    
    361000   1.079686       297.08697      119.72822     -16807.677    
    362000   1.0765503      291.00596     -182.15314     -16847.122    
    363000   1.0821001      296.94254     -745.80432     -16803.686    
    364000   1.088609       289.88118      35.012339     -16927.206    
    365000   1.0752221      292.32629      190.34849     -16944.968    
    366000   1.0928879      287.94194     -196.39219     -16909.736    
    367000   1.0851906      298.12425     -651.61014     -16966.759    
    368000   1.0773741      291.41473     -567.35558     -16979.849    
    369000   1.0891082      292.72516     -104.81377     -16878.401    
    370000   1.0745135      297.77143     -310.7389      -16756.977    
    371000   1.0777558      290.29519      161.70259     -16892.711    
    372000   1.0757659      292.57018      250.18282     -16803.663    
    373000   1.0802054      297.50452      260.87485     -16785.921    
    374000   1.0811386      289.16587     -410.17326     -16789.14     
    375000   1.0809572      304.25245      459.51107     -16758.341    
    376000   1.0832338      295.97033     -115.17615     -16811.481    
    377000   1.0766524      295.35757      371.2443      -16897.281    
    378000   1.0831168      298.74904     -211.74946     -16777.91     
    379000   1.0980046      294.36516      1173.0513     -16801.243    
    380000   1.0867226      298.98725     -91.304145     -16728.841    
    381000   1.0790223      295.89465     -531.39571     -16824.349    
    382000   1.0872697      284.57549     -448.44036     -16899.763    
    383000   1.0761743      286.66968      552.33574     -16903.838    
    384000   1.0817498      293.40528     -861.50802     -16895.022    
    385000   1.0822241      287.9898       320.9936      -16845.585    
    386000   1.0776499      305.27459     -234.15807     -16825.007    
    387000   1.0747115      282.49054      10.854981     -16937.791    
    388000   1.0771881      279.36843      200.13727     -16929.04     
    389000   1.0840447      293.40376     -425.00777     -16900.336    
    390000   1.0848054      293.99399      275.49125     -16903.446    
    391000   1.0942259      303.86719      655.08896     -16792.034    
    392000   1.0967957      300.36476      209.26506     -16823.052    
    393000   1.0794927      294.82057     -224.4529      -16825.095    
    394000   1.0817378      298.49186     -666.24119     -16756.795    
    395000   1.0802009      299.38667     -293.88716     -16852.939    
    396000   1.0793494      296.99175      239.60112     -16890.02     
    397000   1.0707794      294.45449     -484.32319     -16915.714    
    398000   1.083674       292.95865     -697.0785      -16887.291    
    399000   1.0784236      291.44228     -228.24546     -16838.366    
    400000   1.0766125      300.88796     -109.81801     -16849.684    
    401000   1.0861689      293.24014      1284.0778     -16837.822    
    402000   1.079273       301.46685      714.82943     -16755.367    
    403000   1.0754287      301.80501     -121.03346     -16728.322    
    404000   1.0891106      294.61846     -215.1249      -16863.348    
    405000   1.0798448      291.63558      208.31935     -16743.9      
    406000   1.082065       292.9782       688.26584     -16771.39     
    407000   1.0856601      297.2877      -22.992194     -16833.65     
    408000   1.0789965      298.82839     -633.13162     -16762.712    
    409000   1.0726353      298.15978      187.51707     -16739.041    
    410000   1.075177       291.19523      80.333064     -16861.316    
    411000   1.0834151      296.30044     -206.7719      -16758.816    
    412000   1.0734054      298.04357      598.51831     -16838.09     
    413000   1.0749428      293.99065     -625.06405     -16776.987    
    414000   1.0664094      297.4086       57.321823     -16753.624    
    415000   1.0805264      297.6754       295.90689     -16824.688    
    416000   1.0759945      292.51613      94.7136       -16853.283    
    417000   1.081279       295.12811      593.33371     -16872.297    
    418000   1.0695836      300.19768     -142.44975     -16771.702    
    419000   1.0728185      296.5468      -1106.3546     -16841.972    
    420000   1.0674215      294.49029     -1369.8006     -16793.408    
    421000   1.0828062      297.03268      161.41076     -16743.449    
    422000   1.0857713      295.07795      228.49222     -16911.837    
    423000   1.0846762      298.52306      134.07408     -16850.657    
    424000   1.0769346      294.88888     -821.87382     -16863.377    
    425000   1.0880076      298.68395      324.25366     -16859.023    
    426000   1.077224       295.84046      54.689848     -16865.073    
    427000   1.0697897      306.95796     -478.73639     -16728.748    
    428000   1.0828631      306.52248     -481.35081     -16775.797    
    429000   1.0909333      296.384        1152.7734     -16894.212    
    430000   1.0811991      295.61235     -671.62809     -16725.062    
    431000   1.0868533      297.2565       543.90481     -16725.287    
    432000   1.0774382      287.37869      547.76218     -16824.681    
    433000   1.0901459      293.15466     -29.322327     -16884.449    
    434000   1.0885527      294.92183      123.66909     -16921.115    
    435000   1.0810813      302.10893      337.82862     -16754.45     
    436000   1.074035       295.49984     -191.2002      -16791.525    
    437000   1.0881122      290.15503     -254.73121     -16906.194    
    438000   1.07907        302.88775      335.35772     -16727.374    
    439000   1.0817776      297.22148      964.66031     -16811.709    
    440000   1.0618501      299.34454     -1076.1759     -16786.675    
    441000   1.0751916      298.40332     -402.3756      -16820.083    
    442000   1.088364       300.93785     -696.43069     -16888.296    
    443000   1.0788411      297.37074      146.57851     -16754.12     
    444000   1.0784129      293.81497     -407.01036     -16868.142    
    445000   1.0917296      298.19306      97.055364     -16874.96     
    446000   1.0867253      290.67001      110.29611     -16964.173    
    447000   1.0784555      297.58522      68.014806     -16840.051    
    448000   1.0834985      290.06135      360.15212     -16930.541    
    449000   1.0677895      295.78965     -441.41363     -16776.069    
    450000   1.0742743      299.13773      198.61735     -16787.346    
    451000   1.0911995      292.34523      723.4307      -16902.271    
    452000   1.0910025      294.03538      1145.0457     -16837.196    
    453000   1.0789383      299.47297     -268.13501     -16823.312    
    454000   1.0837783      297.51559     -468.58265     -16862.718    
    455000   1.0874092      289.59932     -407.38002     -16880.936    
    456000   1.0845441      301.15561     -50.830953     -16802.574    
    457000   1.0831457      297.9279      -231.56734     -16890.458    
    458000   1.0729494      300.84095      336.02532     -16677.185    
    459000   1.0845844      299.54102     -101.70368     -16762.417    
    460000   1.0954879      290.96875      553.81505     -16874.98     
    461000   1.0828989      297.38744      370.54469     -16826.963    
    462000   1.0952205      289.38998      136.52496     -16794.325    
    463000   1.0814625      302.03898      997.29964     -16711.732    
    464000   1.066073       296.57006     -623.99036     -16878.966    
    465000   1.0837413      293.25472     -210.30046     -16869.508    
    466000   1.0746909      292.58365     -546.65702     -16938.61     
    467000   1.0852693      294.74235     -618.82964     -16888.288    
    468000   1.0760378      292.84865     -155.72103     -16939.033    
    469000   1.087343       301.3417       9.8213593     -16908.536    
    470000   1.0747855      296.72393     -213.27819     -16861.941    
    471000   1.0759785      295.39379      767.28486     -16821.122    
    472000   1.0768081      303.0321       162.42268     -16744.178    
    473000   1.086076       300.89263      257.42994     -16869.542    
    474000   1.0720957      292.90352     -225.75202     -16809.139    
    475000   1.0855374      292.43305      36.218982     -16727.227    
    476000   1.0826252      291.02125      381.8112      -16910.619    
    477000   1.0857161      297.14115      102.14112     -16835.775    
    478000   1.071905       301.99696     -421.86934     -16827.951    
    479000   1.0854039      294.90785     -381.63818     -16896.888    
    480000   1.0822929      290.14408      82.24073      -16891.531    
    481000   1.0912488      291.17543      45.290496     -16864.233    
    482000   1.0851747      301.61595     -422.56775     -16869.706    
    483000   1.0808376      300.79287     -252.22083     -16772.765    
    484000   1.0824026      295.39314      20.428606     -16857.008    
    485000   1.0956992      293.47385      376.93655     -16747.135    
    486000   1.0733775      298.37965     -361.20046     -16840.165    
    487000   1.0811673      295.5453      -600.01303     -16910.665    
    488000   1.076987       304.87373      102.48687     -16734.954    
    489000   1.0786358      288.60707     -595.48764     -16896.547    
    490000   1.0772265      301.45629      356.83369     -16817.046    
    491000   1.0698708      297.12109      52.006547     -16835.761    
    492000   1.0814464      299.17662      10.623054     -16902.665    
    493000   1.0813791      297.24638      83.898141     -16896.724    
    494000   1.0821142      286.22654     -51.330592     -16891.191    
    495000   1.0856311      296.87583      266.30793     -16947.431    
    496000   1.1018923      301.85139      268.43354     -16865.89     
    497000   1.081478       296.76745      186.56671     -16862.155    
    498000   1.0901187      292.56431      631.20823     -16956.341    
    499000   1.1003546      293.86695      840.36829     -16836.063    
    500000   1.0785007      289.69612     -287.20433     -16921.814    
    501000   1.0892144      298.25899     -1002.5209     -16796.918    
    502000   1.1011476      291.46303      1096.2983     -16985.63     
    503000   1.0804907      300.33836      459.26891     -16755.403    
    504000   1.0770808      297.66551      547.16584     -16762.85     
    505000   1.0839168      286.3264       87.37189      -16802.603    
    506000   1.077083       304.28883      155.80744     -16707.521    
    507000   1.0864731      298.87799      813.17151     -16816.872    
    508000   1.0878687      297.40494      494.4581      -16915.434    
    509000   1.0875621      294.98266     -174.25027     -16851.56     
    510000   1.0747404      302.254        208.6689      -16678.888    
    511000   1.0702877      300.36011     -73.406239     -16773.317    
    512000   1.0835908      292.89776     -318.16786     -16811.016    
    513000   1.0961259      296.15597     -27.267032     -16879.184    
    514000   1.081392       297.11286      11.723197     -16865.655    
    515000   1.0742122      300.34149     -800.00392     -16872.779    
    516000   1.0729805      296.77589     -785.74858     -16783.939    
    517000   1.0731829      296.69864      412.08065     -16828.685    
    518000   1.0735798      292.13048     -606.31076     -16895.314    
    519000   1.073341       294.38259     -616.31811     -16807.32     
    520000   1.0796154      310.08334      258.14982     -16665.618    
    521000   1.0818327      293.00132     -69.096171     -16826.455    
    522000   1.0788937      293.09276      50.365238     -16815.825    
    523000   1.0804117      302.3979       237.76352     -16781.319    
    524000   1.0732711      296.40903     -71.509299     -16885.708    
    525000   1.0894889      292.36742      386.6282      -16842.34     
    526000   1.0827252      292.50575      195.39483     -16859.666    
    527000   1.0795997      308.47427     -854.53093     -16814.351    
    528000   1.0771972      287.07762      97.563678     -16904.234    
    529000   1.0855113      297.64546      84.900861     -16756.497    
    530000   1.0713359      298.07299     -574.60154     -16833.028    
    531000   1.094464       295.01657      216.5426      -17004.908    
    532000   1.0856841      303.32388      55.094781     -16928.708    
    533000   1.0888897      296.37338      32.882965     -16790.15     
    534000   1.0878098      290.48913      154.97865     -16880.427    
    535000   1.0835047      292.1688       167.35234     -16837.53     
    536000   1.0957275      295.08352     -194.94307     -16870.449    
    537000   1.0859424      294.82736      237.73072     -16859.902    
    538000   1.0816898      301.35379      9.5018606     -16871.468    
    539000   1.0845608      303.1116       192.08908     -16858.929    
    540000   1.0799433      293.03937      402.41425     -16850.978    
    541000   1.0865562      296.56083      51.455137     -16903.977    
    542000   1.0739233      304.01934     -76.086034     -16834.469    
    543000   1.0791645      307.72074     -1096.1122     -16752.789    
    544000   1.0789197      293.881       -661.29119     -16807.368    
    545000   1.0672847      292.62998      492.85447     -16860.104    
    546000   1.0766708      288.56499     -445.28101     -16894.945    
    547000   1.0744135      297.07133     -621.78858     -16784.683    
    548000   1.0736595      297.06062     -777.03399     -16852.798    
    549000   1.0784585      291.42317     -244.05323     -16887.269    
    550000   1.0782005      291.7148       377.58048     -16823.91     
    551000   1.0874168      303.18314      456.65651     -16803.624    
    552000   1.0756343      290.63904     -577.70016     -16816.172    
    553000   1.0830317      286.36681      255.0918      -16814.335    
    554000   1.0900963      292.12857      877.62075     -16858.903    
    555000   1.0683958      291.70527      233.38581     -16840.335    
    556000   1.074943       299.91143     -1026.4565     -16920.251    
    557000   1.0702838      302.61744     -141.1804      -16902.493    
    558000   1.0802439      294.34176     -152.76894     -16856.981    
    559000   1.0801383      294.04492      197.49743     -16820.579    
    560000   1.078136       301.25482     -111.36842     -16826.291    
    561000   1.0737321      303.87454     -464.30598     -16728.059    
    562000   1.0658159      297.79515     -280.07966     -16716.053    
    563000   1.0811402      296.5695      -482.11289     -16847.659    
    564000   1.0752721      293.92382     -476.47091     -16806.778    
    565000   1.077354       291.03882     -269.42279     -16837.201    
    566000   1.0806221      292.06761     -317.90928     -16892.011    
    567000   1.08681        300.39318      9.1230756     -16799.488    
    568000   1.0724875      291.50857     -1152.2162     -16843.012    
    569000   1.0748873      297.69699     -800.54734     -16796.884    
    570000   1.0801303      294.95961      398.98735     -16755.174    
    571000   1.0767748      289.69369      668.27783     -16909.342    
    572000   1.0787518      297.97523     -688.51619     -16807.915    
    573000   1.0811655      295.0482      -101.77606     -16833.905    
    574000   1.0816073      304.42684     -35.965638     -16692.687    
    575000   1.0784609      295.84612      89.53352      -16776.141    
    576000   1.0780344      299.48686      421.18717     -16796.001    
    577000   1.0760468      304.85528      176.42588     -16727.565    
    578000   1.0759977      290.36665     -232.75542     -16801.518    
    579000   1.0861808      298.18228      361.03871     -16897.884    
    580000   1.0724563      293.47613      122.90066     -16811.823    
    581000   1.0868568      293.11182      701.1632      -16935.616    
    582000   1.0795278      298.35819     -487.77145     -16899.958    
    583000   1.073059       300.64781     -406.10743     -16854.734    
    584000   1.0861391      297.12006     -22.459699     -16805.89     
    585000   1.0781015      306.16034      261.64948     -16737.462    
    586000   1.0820595      300.56015      197.15922     -16784.955    
    587000   1.079866       304.41381      155.97423     -16766.498    
    588000   1.0748293      295.96064      96.021014     -16818.359    
    589000   1.0603971      286.97547     -982.52549     -16833.746    
    590000   1.0747574      301.22045     -178.65799     -16793.417    
    591000   1.0851514      292.00954      188.81055     -16911.092    
    592000   1.0766964      289.57316     -458.43374     -16830.427    
    593000   1.0694066      296.23001      144.82428     -16810.449    
    594000   1.075851       289.11202      104.25225     -16876.658    
    595000   1.0670357      296.28935     -82.624017     -16761.907    
    596000   1.0639125      296.83562     -241.89851     -16714.343    
    597000   1.0652962      296.17747     -70.504207     -16794.949    
    598000   1.0773871      288.01083     -195.98012     -16824.572    
    599000   1.0876828      308.48977      396.72446     -16775.792    
    600000   1.0899227      293.83406      11.416561     -16862.959    
    601000   1.0806088      300.20613      496.26648     -16764.091    
    602000   1.0728864      290.70212      214.77465     -16869.677    
    603000   1.0785717      301.06399     -21.373492     -16820.952    
    604000   1.0891942      297.73893     -29.998434     -16938.082    
    605000   1.0787462      302.13631     -923.23007     -16780.061    
    606000   1.0684009      295.22821     -557.07253     -16817.305    
    607000   1.0867802      288.40774     -368.28282     -16916.841    
    608000   1.0679321      303.02358     -569.44635     -16750.686    
    609000   1.0746354      292.70473     -240.41412     -16868.941    
    610000   1.0851308      294.85748     -403.13691     -16899.731    
    611000   1.0947486      296.29301      665.61153     -16916.956    
    612000   1.070825       302.31149      37.319464     -16782.688    
    613000   1.0739978      294.32427     -103.90812     -16867.846    
    614000   1.0807739      299.55265      122.82281     -16792.864    
    615000   1.0793865      297.29652     -307.02034     -16728.027    
    616000   1.0809545      306.51512      475.33267     -16788.186    
    617000   1.0775436      291.99651      28.0613       -16825.416    
    618000   1.0833087      301.05838      572.50054     -16813.522    
    619000   1.0615667      298.15708     -1099.1444     -16895.334    
    620000   1.0726971      291.87427     -251.00012     -16899.468    
    621000   1.0728066      300.06373     -394.92806     -16839.293    
    622000   1.0778596      300.32847     -4.6286933     -16852.496    
    623000   1.075538       297.06515      235.60577     -16879.199    
    624000   1.0808817      297.51631      383.08419     -16802.88     
    625000   1.073296       290.50758     -515.80201     -16908.606    
    626000   1.0764002      289.11483      174.50478     -16977.397    
    627000   1.0733339      300.3267      -452.83611     -16730.81     
    628000   1.0833316      301.98699      34.265166     -16856.99     
    629000   1.0782181      305.32443     -207.9543      -16819.954    
    630000   1.0734474      295.35225      473.8036      -16803.51     
    631000   1.0786537      289.43112      641.96204     -16874.747    
    632000   1.0958604      294.27454     -84.299416     -16880.498    
    633000   1.0748822      293.13192     -536.77396     -16848.922    
    634000   1.0781624      289.72446     -139.46815     -16850.64     
    635000   1.0729316      288.98442     -547.80669     -16818.815    
    636000   1.0634331      301.51921     -871.49514     -16863.595    
    637000   1.0743066      300.42503      204.58511     -16774.214    
    638000   1.0821369      291.46435     -2.5682278     -16931.123    
    639000   1.0726076      302.92968      322.51192     -16847.114    
    640000   1.0837072      293.63722      477.55389     -16889.502    
    641000   1.0860475      306.69338      800.86097     -16830.981    
    642000   1.0621496      301.70367     -299.76845     -16781.89     
    643000   1.0748429      291.64191     -210.37182     -16875.141    
    644000   1.0832288      293.92515      652.98033     -16822.604    
    645000   1.0834021      293.48297      317.39296     -16807.628    
    646000   1.0648317      297.79793     -831.922       -16774.731    
    647000   1.0752273      297.81628     -375.94128     -16675.874    
    648000   1.0778456      292.98509      219.19898     -16841.515    
    649000   1.0771127      304.31657      174.2841      -16686.02     
    650000   1.0809242      297.68444     -275.29554     -16871.838    
    651000   1.0756908      297.93951      42.279769     -16850.316    
    652000   1.0851573      294.67108      73.996166     -16830.609    
    653000   1.0837022      296.96971      991.87731     -16714.359    
    654000   1.0661019      300.48605     -338.91987     -16722.771    
    655000   1.0794963      292.12687      51.551622     -16778.315    
    656000   1.0688396      295.94151      1179.1549     -16878.742    
    657000   1.0813073      290.4934       915.39543     -16884.985    
    658000   1.0746493      300.78137      30.710105     -16782.974    
    659000   1.0628183      293.93149     -1043.712      -16802.889    
    660000   1.0626741      291.31263     -991.1307      -16784.548    
    661000   1.0707761      298.25389     -79.06597      -16767.898    
    662000   1.0829296      302.2589      -303.41463     -16866.999    
    663000   1.08737        299.19729      380.96001     -16773.63     
    664000   1.0891868      295.93835     -304.2694      -16851.087    
    665000   1.0776289      311.21881      22.719798     -16708.128    
    666000   1.0782551      304.45177     -276.48622     -16760.603    
    667000   1.095277       295.07128     -404.88092     -16802.861    
    668000   1.0934895      293.68825      459.61678     -16837.671    
    669000   1.0853619      295.56538     -233.76039     -16866.459    
    670000   1.0830289      290.77368     -95.950859     -16828.185    
    671000   1.0928258      299.60718      79.358901     -16790.52     
    672000   1.0774415      293.83269     -539.40397     -16796.624    
    673000   1.0767827      304.50222     -137.5085      -16748.118    
    674000   1.0638658      289.82536     -930.13637     -16930.851    
    675000   1.0793975      301.80806      257.5852      -16781.547    
    676000   1.0737442      294.28756      329.80303     -16854.73     
    677000   1.0816266      296.18001      395.83159     -16836.216    
    678000   1.0697272      299.01659     -386.81116     -16780.965    
    679000   1.0766151      296.50834     -198.90642     -16802.784    
    680000   1.0751738      295.36582     -201.34988     -16766.462    
    681000   1.0770961      284.53873      111.52444     -16942.683    
    682000   1.0785041      300.55334      8.0102579     -16783.986    
    683000   1.0772149      296.84428     -109.67815     -16939.508    
    684000   1.0819444      284.33        -601.85094     -16894.478    
    685000   1.0799083      290.10258     -457.66183     -16888.145    
    686000   1.0827258      300.13071     -449.82192     -16833.323    
    687000   1.0672877      292.70769     -500.406       -16812.921    
    688000   1.073297       307.903       -3.3913431     -16742.958    
    689000   1.0770321      298.76419      192.17475     -16819.128    
    690000   1.0848621      299.91189     -463.95379     -16919.619    
    691000   1.0794242      303.43922     -353.73702     -16757.199    
    692000   1.0833663      293.84653     -468.03397     -16831.648    
    693000   1.0791175      300.15949     -440.85051     -16908.28     
    694000   1.1002315      297.23787     -142.72013     -16800.878    
    695000   1.0905487      286.41572     -90.059902     -16916.873    
    696000   1.0869335      293.76137      469.7667      -16843.18     
    697000   1.0829734      301.77552      836.99177     -16830.156    
    698000   1.079996       291.42015      123.92488     -16844.633    
    699000   1.0823158      288.8571       159.4384      -16885.967    
    700000   1.0753242      299.59885      11.867719     -16797.522    
    701000   1.0925896      295.21108      701.63405     -16769.81     
    702000   1.0762884      293.03218      276.95187     -16799.631    
    703000   1.0680832      305.33086     -1008.6362     -16689.699    
    704000   1.0715294      303.8036      -57.680664     -16706.503    
    705000   1.0723197      296.52571     -702.98638     -16882.891    
    706000   1.0730292      288.34204     -596.86526     -16913.272    
    707000   1.0767284      292.39066     -921.38031     -16848.769    
    708000   1.0885155      289.56516     -200.17915     -16901.191    
    709000   1.0913396      302.41146      389.6571      -16792.98     
    710000   1.0769831      298.57937     -673.86603     -16780.438    
    711000   1.0730508      301.12444     -371.12475     -16774.817    
    712000   1.0630836      291.75346     -292.95591     -16767.423    
    713000   1.0852135      297.71225      523.95448     -16838.294    
    714000   1.0649254      303.33898      413.13457     -16728.198    
    715000   1.0751027      297.06528     -660.96266     -16862.747    
    716000   1.0870624      288.84899     -3.2579085     -16941.909    
    717000   1.0762914      292.22122      648.36526     -16887.124    
    718000   1.0783008      295.20056     -152.72944     -16843.571    
    719000   1.0658779      295.61743     -48.338104     -16772.422    
    720000   1.0796188      293.37867     -358.98719     -16858.091    
    721000   1.0851262      306.04054      205.87943     -16742.953    
    722000   1.0889327      289.40159      758.15345     -16814.646    
    723000   1.0876883      293.70704      286.34823     -16877.263    
    724000   1.0903076      303.07844     -723.24152     -16788.642    
    725000   1.0641817      295.1284      -73.428842     -16726.971    
    726000   1.0810993      301.74223      116.35817     -16722.655    
    727000   1.077504       301.98988     -1115.6425     -16824.599    
    728000   1.07843        297.18062      1016.1383     -16857.217    
    729000   1.0742925      296.32676     -525.16422     -16882.985    
    730000   1.0879384      293.57941     -386.18579     -16832.301    
    731000   1.0840128      304.39917     -95.426329     -16818.508    
    732000   1.0771316      298.68512     -292.15596     -16827.01     
    733000   1.0847342      298.31976      184.62663     -16752.075    
    734000   1.0780479      296.2724      -328.72957     -16826.319    
    735000   1.0848144      283.69956      615.38831     -16905.5      
    736000   1.095963       289.44776      879.852       -16924.34     
    737000   1.0890403      289.51307     -121.62947     -16834.279    
    738000   1.0707746      289.24539      133.46656     -16901.585    
    739000   1.0771125      292.02535      481.13749     -16815.936    
    740000   1.0848765      288.10848      854.65424     -16821.636    
    741000   1.0724335      297.91744     -208.36167     -16813.813    
    742000   1.0805854      285.71116     -85.342997     -16889.773    
    743000   1.0763078      294.41479     -263.8098      -16816.164    
    744000   1.0632575      291.42622     -744.44076     -16852.395    
    745000   1.0851456      301.68657      588.8588      -16827.207    
    746000   1.0789606      295.87922     -234.43341     -16807.313    
    747000   1.0777915      292.88633     -620.29149     -16782.286    
    748000   1.0772944      299.52036      262.9587      -16899.155    
    749000   1.0905479      291.06422     -201.96355     -16911.234    
    750000   1.0790175      302.32664     -335.98811     -16819.601    
    751000   1.0935454      303.59329      141.20819     -16825.398    
    752000   1.0785775      291.18933     -324.74802     -16830.519    
    753000   1.064661       293.31396     -938.0601      -16783.902    
    754000   1.0782672      312.45684      360.94016     -16719.246    
    755000   1.0765116      295.94282     -26.374671     -16816.522    
    756000   1.0706593      296.93418     -872.8621      -16758.191    
    757000   1.0863166      295.14132      759.71934     -16721.21     
    758000   1.0872549      296.01696     -756.33036     -16816.557    
    759000   1.0693401      303.96857     -122.55453     -16768.12     
    760000   1.0791533      293.7653       788.70724     -16856.341    
    761000   1.0860443      288.10527      14.665866     -16914.062    
    762000   1.0906559      288.27271      822.00914     -16894.145    
    763000   1.0919322      290.25244      28.111889     -16957.912    
    764000   1.0768011      296.19144      397.64447     -16705.562    
    765000   1.0801044      303.59301     -100.51997     -16760.72     
    766000   1.0683169      299.81864     -1215.6069     -16756.094    
    767000   1.0789616      300.47799     -161.31802     -16802.914    
    768000   1.0841371      302.90087     -80.257631     -16797.821    
    769000   1.0918344      298.6372      -348.79254     -16797.392    
    770000   1.0924593      302.44107      197.42301     -16791.492    
    771000   1.0814926      291.63361     -243.07383     -16855.127    
    772000   1.0813316      288.59252      328.81327     -16926.633    
    773000   1.0741843      295.18684     -1132.0261     -16768.011    
    774000   1.0794672      312.07582      288.13248     -16689.767    
    775000   1.0784602      290.36789     -28.854126     -16823.346    
    776000   1.0842232      295.33197      71.107102     -16805.308    
    777000   1.0857882      295.45125      288.47548     -16775.935    
    778000   1.0940202      296.79747      509.83112     -16749.646    
    779000   1.0923775      287.61989      843.54671     -16932.24     
    780000   1.0859056      295.51971      17.460682     -16888.38     
    781000   1.0876795      296.10212      1186.3423     -16802.195    
    782000   1.0831775      291.14454      280.72916     -16814.925    
    783000   1.0728869      295.52968      447.49132     -16816.285    
    784000   1.0749026      303.02917     -258.4799      -16785.758    
    785000   1.0919187      297.26579      34.605228     -16845.325    
    786000   1.0945332      295.93653      727.48658     -16886.37     
    787000   1.0955833      302.28955     -175.37049     -16837.15     
    788000   1.0886412      300.95547      940.79578     -16831.946    
    789000   1.0914439      291.01779      134.75878     -16834.362    
    790000   1.0772303      300.07055      413.04357     -16797.109    
    791000   1.0705369      295.72336     -271.45092     -16782.134    
    792000   1.0748514      298.31042     -379.19301     -16786.223    
    793000   1.0705969      293.58544     -417.87873     -16856.409    
    794000   1.0703631      298.47049     -564.87859     -16696.888    
    795000   1.0815018      293.48295     -830.38858     -16856.607    
    796000   1.0844833      301.51644     -258.14757     -16846.264    
    797000   1.0828769      302.55779      453.35863     -16728.556    
    798000   1.0881203      287.5818       712.77085     -16882.806    
    799000   1.0900881      305.30524     -467.9685      -16740.978    
    800000   1.0791025      301.87205     -590.05988     -16807.598    
    801000   1.0796892      292.39558      50.515724     -16838.955    
    802000   1.0672249      301.7595      -256.67538     -16785.14     
    803000   1.0705948      304.8543      -31.635211     -16804.15     
[...]
  10291000   1.0808153      290.77908     -351.02997     -16910.337    
  10292000   1.0808153      291.47742      467.92203     -16897.114    
  10293000   1.0808153      293.79878     -100.49061     -16843.063    
  10294000   1.0808153      302.6869       211.35644     -16729.922    
  10295000   1.0808153      295.90302     -85.277621     -16749.899    
  10296000   1.0808153      293.00578     -760.49221     -16846.541    
  10297000   1.0808153      298.0899       769.77324     -16806.219    
  10298000   1.0808153      301.22352     -330.34644     -16790.88     
  10299000   1.0808153      296.71112      93.02951      -16782.88     
  10300000   1.0808153      297.23752     -379.55186     -16919.362    
  10301000   1.0808153      290.45118     -99.594997     -16905.316    
  10302000   1.0808153      303.63531      384.18647     -16757.848    
  10303000   1.0808153      295.99225      20.245088     -16818.906    
  10304000   1.0808153      295.10025      111.39731     -16849.886    
  10305000   1.0808153      293.43364      75.574034     -16847.858    
  10306000   1.0808153      291.12335      141.38622     -16922.434    
  10307000   1.0808153      300.25309      123.99297     -16856.825    
  10308000   1.0808153      295.06151      344.34446     -16870.969    
  10309000   1.0808153      299.35082      414.71011     -16935.161    
  10310000   1.0808153      302.36416     -599.48561     -16771.446    
  10311000   1.0808153      294.61938     -667.65535     -16836.457    
  10312000   1.0808153      302.11659      214.77948     -16776.144    
  10313000   1.0808153      298.69026     -8.7740944     -16830.687    
  10314000   1.0808153      302.95396      1175.0967     -16717.442    
  10315000   1.0808153      297.24776     -159.24353     -16916.383    
  10316000   1.0808153      291.68573     -513.9496      -16914.6      
  10317000   1.0808153      298.79145      116.17294     -16846.338    
  10318000   1.0808153      299.38458      302.38336     -16878.619    
  10319000   1.0808153      294.93203     -267.01439     -16925.306    
  10320000   1.0808153      296.95851     -297.24161     -16774.293    
  10321000   1.0808153      287.66619     -433.5209      -16889.838    
  10322000   1.0808153      294.1925      -628.11306     -16840.477    
  10323000   1.0808153      297.22365     -298.19661     -16906.384    
  10324000   1.0808153      295.94842     -309.57101     -16785.065    
  10325000   1.0808153      303.29765     -49.477325     -16752.991    
  10326000   1.0808153      295.4852       385.81962     -16811.426    
  10327000   1.0808153      284.36583     -282.86193     -16845.865    
  10328000   1.0808153      299.57297      407.49121     -16734.961    
  10329000   1.0808153      292.19692     -319.1388      -16842.076    
  10330000   1.0808153      300.72264      224.49681     -16846.946    
  10331000   1.0808153      295.869       -403.97462     -16836.064    
  10332000   1.0808153      295.00554     -202.58688     -16816.685    
  10333000   1.0808153      296.1146      -366.19056     -16807.701    
  10334000   1.0808153      298.11327     -10.987312     -16866.996    
  10335000   1.0808153      308.30637      453.09728     -16663.187    
  10336000   1.0808153      289.85523      162.76808     -16815.642    
  10337000   1.0808153      297.71386     -225.80228     -16827.806    
  10338000   1.0808153      291.57529      219.69141     -16853.151    
  10339000   1.0808153      297.85365     -390.15071     -16786.889    
  10340000   1.0808153      290.97828      987.38518     -16882.16     
  10341000   1.0808153      293.77546     -535.05453     -16830.039    
  10342000   1.0808153      287.13017      446.8168      -16909.752    
  10343000   1.0808153      292.05672      12.621786     -16856.361    
  10344000   1.0808153      293.71659      147.40528     -16817.001    
  10345000   1.0808153      304.22732      432.9083      -16768.456    
  10346000   1.0808153      310.6711       929.04437     -16673.679    
  10347000   1.0808153      297.2512       512.65794     -16835.068    
  10348000   1.0808153      289.36661     -798.6177      -16795.944    
  10349000   1.0808153      293.02181      358.46968     -16797.461    
  10350000   1.0808153      292.99615      486.83588     -16783.446    
  10351000   1.0808153      284.93193      59.752648     -16917.746    
  10352000   1.0808153      304.86199     -43.216856     -16750.12     
  10353000   1.0808153      299.66253      84.132207     -16797.095    
  10354000   1.0808153      289.53347     -281.78131     -16926.694    
  10355000   1.0808153      292.66241     -186.04335     -16890.91     
  10356000   1.0808153      300.34236     -468.47696     -16757.765    
  10357000   1.0808153      299.48924      60.306919     -16799.083    
  10358000   1.0808153      288.8755      -864.74924     -16910.126    
  10359000   1.0808153      296.46686     -373.25648     -16874.798    
  10360000   1.0808153      292.34286      113.36303     -16918.117    
  10361000   1.0808153      293.80053     -383.34203     -16841.186    
  10362000   1.0808153      300.77596     -656.99445     -16775.538    
  10363000   1.0808153      297.30282      426.75564     -16737.936    
  10364000   1.0808153      302.33722      589.07421     -16694.474    
  10365000   1.0808153      295.9625       23.477155     -16738.969    
  10366000   1.0808153      301.10859      657.31767     -16733.705    
  10367000   1.0808153      302.47628      460.50204     -16759.975    
  10368000   1.0808153      291.67806      349.6232      -16854.791    
  10369000   1.0808153      302.61011      30.023722     -16786.428    
  10370000   1.0808153      298.76033      137.31253     -16847.163    
  10371000   1.0808153      308.20021      16.204697     -16691.263    
  10372000   1.0808153      296.66093     -65.155308     -16867.736    
  10373000   1.0808153      306.29895     -277.94767     -16776.172    
  10374000   1.0808153      298.29281     -415.23448     -16745.123    
  10375000   1.0808153      297.4228       17.966717     -16838.734    
  10376000   1.0808153      301.34045      501.27792     -16716.845    
  10377000   1.0808153      296.10562      242.22152     -16794.887    
  10378000   1.0808153      299.50137      841.46663     -16739.801    
  10379000   1.0808153      286.81184      360.62349     -16845.861    
  10380000   1.0808153      291.6418      -585.27274     -16792.691    
  10381000   1.0808153      294.61288      317.42566     -16845.529    
  10382000   1.0808153      289.60332      706.2551      -16875.729    
  10383000   1.0808153      293.04024     -431.54007     -16855.236    
  10384000   1.0808153      291.48765     -151.53403     -16796.466    
  10385000   1.0808153      299.53027      144.57735     -16735.159    
  10386000   1.0808153      292.51291      165.43995     -16841.336    
  10387000   1.0808153      298.02908     -165.65018     -16789.243    
  10388000   1.0808153      294.68119      124.75148     -16853.756    
  10389000   1.0808153      296.41446     -930.76918     -16781.217    
  10390000   1.0808153      295.37643     -657.91069     -16837.33     
  10391000   1.0808153      306.14534      129.03799     -16759.246    
  10392000   1.0808153      304.78999     -168.96029     -16793.268    
  10393000   1.0808153      291.43894     -672.39653     -16867.634    
  10394000   1.0808153      299.39223      91.294141     -16804.649    
  10395000   1.0808153      296.07831     -445.50369     -16844.11     
  10396000   1.0808153      296.157        105.45175     -16733.969    
  10397000   1.0808153      305.45876     -14.431537     -16838.147    
  10398000   1.0808153      294.65147     -460.23253     -16888.68     
  10399000   1.0808153      285.93555     -313.17647     -16907.007    
  10400000   1.0808153      299.43129     -264.17079     -16758.706    
  10401000   1.0808153      288.35451     -564.90711     -16895.45     
  10402000   1.0808153      284.82427     -0.23227348    -16959.341    
  10403000   1.0808153      300.07075      455.68137     -16814.024    
  10404000   1.0808153      294.95257      111.21771     -16837.918    
  10405000   1.0808153      296.40592      32.624811     -16849.822    
  10406000   1.0808153      295.7226      -344.62176     -16803.203    
  10407000   1.0808153      287.93988      436.58768     -16844.989    
  10408000   1.0808153      291.75872      328.45161     -16831.364    
  10409000   1.0808153      302.4707      -450.77504     -16810.008    
  10410000   1.0808153      296.78178      101.12547     -16838.491    
  10411000   1.0808153      288.29953     -213.03898     -16862.429    
  10412000   1.0808153      295.61374     -457.9974      -16855.633    
  10413000   1.0808153      285.53704     -275.42766     -16965.787    
  10414000   1.0808153      291.09441     -430.25289     -16851.336    
  10415000   1.0808153      298.4596       228.98813     -16757.941    
  10416000   1.0808153      295.76427      328.33851     -16809.079    
  10417000   1.0808153      294.30972     -679.56441     -16791.791    
  10418000   1.0808153      294.52085     -178.57475     -16857.655    
  10419000   1.0808153      295.1989       1139.1532     -16887.277    
  10420000   1.0808153      294.79211      74.702351     -16903.493    
  10421000   1.0808153      286.06058     -25.886176     -16885.599    
  10422000   1.0808153      302.02874      176.67718     -16893.007    
  10423000   1.0808153      297.575       -575.2489      -16825.19     
  10424000   1.0808153      300.13632      50.671431     -16798.694    
  10425000   1.0808153      297.94967     -1269.3721     -16832.932    
  10426000   1.0808153      296.0084       689.35987     -16815.123    
  10427000   1.0808153      291.21756     -360.20097     -16837.064    
  10428000   1.0808153      306.34484     -458.07621     -16782.492    
  10429000   1.0808153      291.9014       265.79449     -16910.196    
  10430000   1.0808153      293.77205      368.18552     -16874.515    
  10431000   1.0808153      293.76432      679.00653     -16858.145    
  10432000   1.0808153      298.33382     -347.96879     -16849.362    
  10433000   1.0808153      292.73421      86.030644     -16793.752    
  10434000   1.0808153      290.2663       397.88366     -16791.69     
  10435000   1.0808153      294.23986     -307.74267     -16801.595    
  10436000   1.0808153      290.00122     -633.08152     -16884.007    
  10437000   1.0808153      297.76707     -227.15237     -16764.336    
  10438000   1.0808153      296.93266     -591.13694     -16893.87     
  10439000   1.0808153      289.21563      665.77738     -16854.566    
  10440000   1.0808153      288.77571      475.8539      -16888.177    
  10441000   1.0808153      296.89106     -240.04792     -16766.317    
  10442000   1.0808153      300.17435     -92.930349     -16774.609    
  10443000   1.0808153      294.08486      91.660586     -16834.631    
  10444000   1.0808153      300.18156     -17.864105     -16849.766    
  10445000   1.0808153      296.83655     -189.8906      -16859.981    
  10446000   1.0808153      293.10701      279.07856     -16913.959    
  10447000   1.0808153      296.0244      -293.774       -16877.452    
  10448000   1.0808153      297.17245      164.03988     -16733.951    
  10449000   1.0808153      290.7453       1183.1028     -16815.852    
  10450000   1.0808153      298.17999      262.55334     -16883.407    
  10451000   1.0808153      298.12119      231.7938      -16776.946    
  10452000   1.0808153      295.3314       984.33185     -16833.381    
  10453000   1.0808153      294.17549     -13.575717     -16776.486    
  10454000   1.0808153      300.03261      208.31072     -16855.95     
  10455000   1.0808153      300.20954      226.90217     -16730.376    
  10456000   1.0808153      297.95883     -350.48873     -16913.183    
  10457000   1.0808153      291.96206      1004.7722     -16897.549    
  10458000   1.0808153      292.87791     -420.9487      -16852.21     
  10459000   1.0808153      297.73367      280.92975     -16832.065    
  10460000   1.0808153      312.45322      440.45701     -16730.4      
  10461000   1.0808153      300.77283      304.40874     -16766.619    
  10462000   1.0808153      302.36365     -356.66127     -16702.872    
  10463000   1.0808153      296.23604      686.74795     -16769.328    
  10464000   1.0808153      303.43902     -289.63986     -16761.758    
  10465000   1.0808153      294.14886     -264.1468      -16771.135    
  10466000   1.0808153      298.89275     -64.419836     -16719.919    
  10467000   1.0808153      299.45138     -369.18893     -16784.789    
  10468000   1.0808153      296.29939      877.58143     -16802.573    
  10469000   1.0808153      302.86443     -26.910345     -16717.469    
  10470000   1.0808153      303.76728     -667.56515     -16724.025    
  10471000   1.0808153      294.24344     -395.13907     -16883.126    
  10472000   1.0808153      303.00198     -259.08971     -16879.228    
  10473000   1.0808153      294.63601      40.01182      -16718.036    
  10474000   1.0808153      297.63221     -468.65778     -16827.832    
  10475000   1.0808153      292.63716     -846.49018     -16824.31     
  10476000   1.0808153      294.8746      -168.55397     -16837.519    
  10477000   1.0808153      293.33504     -141.92792     -16877.672    
  10478000   1.0808153      294.77137     -469.56354     -16853.607    
  10479000   1.0808153      291.3296      -503.14314     -16813.844    
  10480000   1.0808153      294.73875     -238.33114     -16876.192    
  10481000   1.0808153      296.3527       130.46661     -16756.148    
  10482000   1.0808153      301.91268      85.817344     -16775.607    
  10483000   1.0808153      293.29196      733.17752     -16797.457    
  10484000   1.0808153      295.97808     -795.26844     -16862.982    
  10485000   1.0808153      299.81347     -145.89145     -16842.041    
  10486000   1.0808153      289.06835     -516.10521     -16899.29     
  10487000   1.0808153      307.702       -13.914693     -16685.033    
  10488000   1.0808153      292.35803      145.28723     -16916.593    
  10489000   1.0808153      302.64356     -11.967002     -16823.023    
  10490000   1.0808153      299.28417      143.46508     -16865.071    
  10491000   1.0808153      286.72244      35.639687     -16839.741    
  10492000   1.0808153      301.90055      50.822828     -16812.486    
  10493000   1.0808153      291.4217      -15.192553     -16890.598    
  10494000   1.0808153      286.69182      80.300494     -16932.754    
  10495000   1.0808153      287.2345       189.50349     -16915.913    
  10496000   1.0808153      291.57199     -89.304835     -16822.83     
  10497000   1.0808153      296.71322      23.522727     -16932.055    
  10498000   1.0808153      286.6111      -244.15092     -16804.113    
  10499000   1.0808153      292.89656     -934.83006     -16985.194    
  10500000   1.0808153      294.06111     -624.71608     -16843.256    
  10501000   1.0808153      297.42699      862.72828     -16842.047    
  10502000   1.0808153      289.95938     -340.98374     -16818.534    
  10503000   1.0808153      294.05858     -330.8386      -16752.273    
  10504000   1.0808153      297.13494      300.56671     -16787.241    
  10505000   1.0808153      289.23898      872.71723     -16850.785    
  10506000   1.0808153      294.71648     -791.63351     -16722.98     
  10507000   1.0808153      297.1787       161.96341     -16884.914    
  10508000   1.0808153      285.36723     -509.93904     -16885.653    
  10509000   1.0808153      299.6658       90.848058     -16814.575    
  10510000   1.0808153      304.21124      601.15736     -16689.611    
  10511000   1.0808153      298.52582     -162.79324     -16801.027    
  10512000   1.0808153      298.53257      540.00866     -16776.245    
  10513000   1.0808153      301.41796      143.7298      -16745.724    
  10514000   1.0808153      295.62584     -292.81607     -16848.32     
  10515000   1.0808153      295.25874      602.39779     -16742.985    
  10516000   1.0808153      296.4996       442.74518     -16787.7      
  10517000   1.0808153      301.21714     -340.80415     -16815.675    
  10518000   1.0808153      295.44738      640.5749      -16911.143    
  10519000   1.0808153      305.11521      66.307676     -16772.749    
  10520000   1.0808153      291.00854      851.92793     -16810.146    
  10521000   1.0808153      301.70553      891.77521     -16712.907    
  10522000   1.0808153      297.55373     -874.38719     -16848.488    
  10523000   1.0808153      300.13653      139.91107     -16815.018    
  10524000   1.0808153      291.41603      558.76405     -16815.283    
  10525000   1.0808153      294.40884     -650.73879     -16853.411    
  10526000   1.0808153      293.6071      -161.71645     -16760.807    
  10527000   1.0808153      297.87206     -452.83856     -16801.793    
  10528000   1.0808153      296.90974     -569.76178     -16821.636    
  10529000   1.0808153      293.59306     -405.56742     -16905.508    
  10530000   1.0808153      296.14002     -307.95165     -16793.033    
  10531000   1.0808153      296.62746     -212.2689      -16868.313    
  10532000   1.0808153      303.74109      244.20237     -16818.507    
  10533000   1.0808153      295.98316      224.16317     -16837.201    
  10534000   1.0808153      294.28929      249.5193      -16805.963    
  10535000   1.0808153      294.3566      -319.72128     -16842.607    
  10536000   1.0808153      296.81063     -25.288695     -16799.764    
  10537000   1.0808153      290.16849      926.87712     -16855.803    
  10538000   1.0808153      280.94667     -863.94696     -16952.386    
  10539000   1.0808153      288.19686     -808.611       -16794.804    
  10540000   1.0808153      299.66058      758.73221     -16775.656    
  10541000   1.0808153      294.89773      323.80435     -16903.685    
  10542000   1.0808153      296.232       -96.681374     -16878.604    
  10543000   1.0808153      285.05346     -842.39724     -16931.049    
  10544000   1.0808153      302.2388       352.93869     -16857.316    
  10545000   1.0808153      294.39414     -69.547202     -16823.62     
  10546000   1.0808153      297.90521      660.31172     -16758.048    
  10547000   1.0808153      292.17484      73.257053     -16877.006    
  10548000   1.0808153      305.64573      284.50113     -16816.44     
  10549000   1.0808153      295.28864     -724.12696     -16798.083    
  10550000   1.0808153      293.65384     -104.08594     -16888.79     
Loop time of 1266.78 on 32 procs for 500000 steps with 3162 atoms

Performance: 68.205 ns/day, 0.352 hours/ns, 394.703 timesteps/s
99.6% CPU use with 32 MPI tasks x no OpenMP threads

MPI task timing breakdown:
Section |  min time  |  avg time  |  max time  |%varavg| %total
---------------------------------------------------------------
Pair    | 374.35     | 417.03     | 448.53     | 100.8 | 32.92
Bond    | 1.5654     | 1.699      | 1.801      |   5.5 |  0.13
Kspace  | 267.7      | 298.62     | 338.32     | 117.5 | 23.57
Neigh   | 122.26     | 131.27     | 142.44     |  45.6 | 10.36
Comm    | 94.549     | 102.62     | 109.16     |  36.0 |  8.10
Output  | 10.814     | 10.823     | 10.888     |   0.4 |  0.85
Modify  | 289.46     | 296.42     | 301.15     |  17.5 | 23.40
Other   |            | 8.282      |            |       |  0.65

Nlocal:        98.8125 ave         110 max          89 min
Histogram: 2 3 1 6 9 3 3 2 2 1
Nghost:        4255.75 ave        4305 max        4228 min
Histogram: 3 6 9 1 2 7 2 1 0 1
Neighs:          39686 ave       46894 max       33775 min
Histogram: 2 3 4 4 4 6 5 2 1 1

Total # of neighbors = 1269952
Ave neighs/atom = 401.62935
Ave special neighs/atom = 2.0341556
Neighbor list builds = 113307
Dangerous builds = 0

quit
