LAMMPS (23 Jun 2022 - Update 1)
Reading data file ...
  orthogonal box = (0 0 0) to (31.689281 31.689281 31.689281)
  3 by 2 by 4 MPI processor grid
  reading atoms ...
  3162 atoms
  scanning bonds ...
  4 = max bonds/atom
  scanning angles ...
  6 = max angles/atom
  reading bonds ...
  2108 bonds
  reading angles ...
  1108 angles
Finding 1-2 1-3 1-4 neighbors ...
  special bond factors lj:    0        0        0       
  special bond factors coul:  0        0        0       
     4 = max # of 1-2 neighbors
     3 = max # of 1-3 neighbors
     3 = max # of 1-4 neighbors
     4 = max # of special neighbors
  special bonds CPU = 0.001 seconds
  read_data CPU = 1.152 seconds
Setting atom values ...
  1000 settings made for charge
Setting atom values ...
  2000 settings made for charge
Setting atom values ...
  36 settings made for charge
Setting atom values ...
  36 settings made for charge
Setting atom values ...
  18 settings made for charge
Setting atom values ...
  72 settings made for charge
1000 atoms in group wat
36 atoms in group Li
18 atoms in group S
  create bodies CPU = 0.000 seconds
  1054 rigid bodies with 3162 atoms
  1.4900082 = max distance from body owner to body atom
PPPM initialization ...
  extracting TIP4P info from pair style
  using 12-bit tables for long-range coulomb (../kspace.cpp:342)
  G vector (1/distance) = 0.31119582
  grid = 30 30 30
  stencil order = 5
  estimated absolute RMS force accuracy = 0.0035544154
  estimated relative force accuracy = 1.0704016e-05
  using double precision KISS FFT
  3d grid and FFT values/proc = 5610 1800
Generated 0 of 15 mixed pair_coeff terms from arithmetic mixing rule
Neighbor list info ...
  update every 1 steps, delay 0 steps, check yes
  max neighbors/atom: 2000, page size: 100000
  master list distance cutoff = 12.3092
  ghost atom cutoff = 12.3092
  binsize = 6.1546, bins = 6 6 6
  1 neighbor lists, perpetual/occasional/extra = 1 0 0
  (1) pair lj/cut/tip4p/long, perpetual
      attributes: half, newton on
      pair build: half/bin/newton
      stencil: half/bin/3d
      bin: standard
Setting up Verlet run ...
  Unit style    : real
  Current step  : 0
  Time step     : 0.001
Per MPI rank memory allocation (min/avg/max) = 15.57 | 15.61 | 15.64 Mbytes
   Step        Density          Temp          Press          TotEng    
         0   1.0433267      299.91361      7878955.1      5958.2021    
      1000   1.0424552      320.05516      72976.232      5929.3009    
      2000   1.0401673      376.03611      70157.554      5851.636     
      3000   1.0365251      463.19411      65322.279      5718.6762    
      4000   1.0316347      573.1601       58360.675      5515.1051    
      5000   1.0256473      698.17301      50097.037      5240.7479    
      6000   1.0187418      832.33321      42771.218      4911.0321    
      7000   1.0110888      966.52906      35764.305      4522.9772    
      8000   1.0028584      1093.4549      27906.883      4083.2572    
      9000   0.99423291     1205.444       21165.708      3592.0759    
     10000   0.98537864     1298.3483      15210.554      3063.9592    
Loop time of 32.2769 on 24 procs for 10000 steps with 3162 atoms

Performance: 0.027 ns/day, 896.580 hours/ns, 309.819 timesteps/s
99.4% CPU use with 24 MPI tasks x no OpenMP threads

MPI task timing breakdown:
Section |  min time  |  avg time  |  max time  |%varavg| %total
---------------------------------------------------------------
Pair    | 12.814     | 15.187     | 17.731     |  32.1 | 47.05
Bond    | 0.049494   | 0.057494   | 0.066472   |   1.6 |  0.18
Kspace  | 5.6541     | 8.1984     | 10.581     |  43.7 | 25.40
Neigh   | 0.002905   | 0.0029402  | 0.0029728  |   0.0 |  0.01
Comm    | 1.1735     | 1.2064     | 1.2415     |   1.4 |  3.74
Output  | 0.00048399 | 0.0040486  | 0.085937   |  26.8 |  0.01
Modify  | 5.9308     | 6.4516     | 7.3661     |  20.0 | 19.99
Other   |            | 1.169      |            |       |  3.62

Nlocal:         131.75 ave         144 max         118 min
Histogram: 2 1 2 2 3 5 3 1 2 3
Nghost:        4305.42 ave        4410 max        4144 min
Histogram: 4 4 0 0 0 0 0 2 8 6
Neighs:          48550 ave       56242 max       41391 min
Histogram: 2 1 2 5 2 4 3 3 0 2

Total # of neighbors = 1165201
Ave neighs/atom = 368.50127
Ave special neighs/atom = 2.0341556
Neighbor list builds = 2
Dangerous builds = 0
PPPM initialization ...
  extracting TIP4P info from pair style
  using 12-bit tables for long-range coulomb (../kspace.cpp:342)
  G vector (1/distance) = 0.30982324
  grid = 30 30 30
  stencil order = 5
  estimated absolute RMS force accuracy = 0.0037619287
  estimated relative force accuracy = 1.1328937e-05
  using double precision KISS FFT
  3d grid and FFT values/proc = 5610 1800
Generated 0 of 15 mixed pair_coeff terms from arithmetic mixing rule
Setting up Verlet run ...
  Unit style    : real
  Current step  : 10000
  Time step     : 0.01
Per MPI rank memory allocation (min/avg/max) = 15.57 | 15.61 | 15.64 Mbytes
   Step        Density          Temp          Press          TotEng    
     10000   0.98537864     1298.3483      6572.6343      3063.9587    
     11000   0.90728863     1210.4685     -9719.6206     -2066.6748    
     12000   0.86471254     882.18536     -11361.094     -4805.0979    
     13000   0.84981866     734.56903     -10259.378     -6580.803     
     14000   0.85558996     634.02895     -9022.0657     -7908.4712    
     15000   0.87795        564.17829     -6809.8784     -8987.4867    
     16000   0.91246904     524.74642     -4689.8373     -9878.0674    
     17000   0.95362986     499.75676     -2449.365      -10619.758    
     18000   0.9957546      481.48365     -222.1425      -11241.994    
     19000   1.034354       463.07665      1797.3946     -11766.574    
     20000   1.0664951      453.83346      2229.7915     -12234.506    
Loop time of 30.2304 on 24 procs for 10000 steps with 3162 atoms

Performance: 0.286 ns/day, 83.973 hours/ns, 330.793 timesteps/s
99.5% CPU use with 24 MPI tasks x no OpenMP threads

MPI task timing breakdown:
Section |  min time  |  avg time  |  max time  |%varavg| %total
---------------------------------------------------------------
Pair    | 11.841     | 13.972     | 16.412     |  29.6 | 46.22
Bond    | 0.050859   | 0.057062   | 0.062851   |   1.4 |  0.19
Kspace  | 5.5398     | 7.957      | 10.08      |  39.1 | 26.32
Neigh   | 0.020719   | 0.020915   | 0.021163   |   0.1 |  0.07
Comm    | 1.0641     | 1.0963     | 1.1225     |   1.4 |  3.63
Output  | 0.00039635 | 0.0004214  | 0.00087568 |   0.0 |  0.00
Modify  | 5.5133     | 5.9995     | 6.9304     |  21.2 | 19.85
Other   |            | 1.127      |            |       |  3.73

Nlocal:         131.75 ave         147 max         119 min
Histogram: 2 1 2 5 5 2 4 1 1 1
Nghost:        4563.29 ave        4644 max        4496 min
Histogram: 2 4 2 2 2 6 3 0 1 2
Neighs:        52186.7 ave       60791 max       45909 min
Histogram: 2 3 2 4 5 4 0 2 1 1

Total # of neighbors = 1252480
Ave neighs/atom = 396.10373
Ave special neighs/atom = 2.0341556
Neighbor list builds = 15
Dangerous builds = 0
PPPM initialization ...
  extracting TIP4P info from pair style
  using 12-bit tables for long-range coulomb (../kspace.cpp:342)
  G vector (1/distance) = 0.31172111
  grid = 30 30 30
  stencil order = 5
  estimated absolute RMS force accuracy = 0.0034778218
  estimated relative force accuracy = 1.0473357e-05
  using double precision KISS FFT
  3d grid and FFT values/proc = 5610 1800
Generated 0 of 15 mixed pair_coeff terms from arithmetic mixing rule
Setting up Verlet run ...
  Unit style    : real
  Current step  : 20000
  Time step     : 0.1
Per MPI rank memory allocation (min/avg/max) = 15.57 | 15.61 | 15.65 Mbytes
   Step        Density          Temp          Press          TotEng    
     20000   1.0664951      453.83346      1294.777      -12234.503    
     21000   1.1492002      318.95976      598.01188     -15296.704    
     22000   1.1465124      307.94662      101.54943     -15935.9      
     23000   1.1274761      305.58801     -9.2699635     -16124.765    
     24000   1.1285995      301.74571     -510.57869     -16349.017    
     25000   1.122059       299.19833      456.40503     -16473.74     
     26000   1.1193409      307.54092      1041.7716     -16389.531    
     27000   1.1079126      296.37221      12.618006     -16477.522    
     28000   1.1067506      298.52958      414.48342     -16542.906    
     29000   1.1055241      304.22133      663.29244     -16545.963    
     30000   1.0953853      292.63215      177.44208     -16636.81     
Loop time of 35.2224 on 24 procs for 10000 steps with 3162 atoms

Performance: 2.453 ns/day, 9.784 hours/ns, 283.911 timesteps/s
99.5% CPU use with 24 MPI tasks x no OpenMP threads

MPI task timing breakdown:
Section |  min time  |  avg time  |  max time  |%varavg| %total
---------------------------------------------------------------
Pair    | 16.011     | 17.299     | 18.474     |  17.6 | 49.11
Bond    | 0.053637   | 0.058243   | 0.06076    |   0.8 |  0.17
Kspace  | 7.1378     | 8.3101     | 9.59       |  25.4 | 23.59
Neigh   | 0.15786    | 0.15898    | 0.16001    |   0.1 |  0.45
Comm    | 1.2839     | 1.3014     | 1.3148     |   0.7 |  3.69
Output  | 0.00033885 | 0.0003553  | 0.00065176 |   0.0 |  0.00
Modify  | 6.3512     | 6.8212     | 7.7902     |  19.9 | 19.37
Other   |            | 1.274      |            |       |  3.62

Nlocal:         131.75 ave         143 max         124 min
Histogram: 5 1 2 5 3 4 0 1 2 1
Nghost:        4648.46 ave        4688 max        4619 min
Histogram: 5 1 3 1 4 4 2 1 1 2
Neighs:        53598.3 ave       58779 max       50114 min
Histogram: 4 3 4 2 1 6 1 0 0 3

Total # of neighbors = 1286360
Ave neighs/atom = 406.81847
Ave special neighs/atom = 2.0341556
Neighbor list builds = 98
Dangerous builds = 0
PPPM initialization ...
  extracting TIP4P info from pair style
  using 12-bit tables for long-range coulomb (../kspace.cpp:342)
  G vector (1/distance) = 0.31235859
  grid = 30 30 30
  stencil order = 5
  estimated absolute RMS force accuracy = 0.0033869012
  estimated relative force accuracy = 1.0199552e-05
  using double precision KISS FFT
  3d grid and FFT values/proc = 5610 1800
Generated 0 of 15 mixed pair_coeff terms from arithmetic mixing rule
Setting up Verlet run ...
  Unit style    : real
  Current step  : 30000
  Time step     : 0.2
Per MPI rank memory allocation (min/avg/max) = 15.57 | 15.61 | 15.65 Mbytes
   Step        Density          Temp          Press          TotEng    
     30000   1.0953853      292.63215     -627.86925     -16636.809    
     31000   1.0917256      304.50631     -1165.9403     -16724.904    
     32000   1.0896189      304.85535     -983.37709     -16636.128    
     33000   1.0972997      298.51646      746.18888     -16760.658    
     34000   1.0746499      304.83173     -1717.2313     -16613.171    
     35000   1.0976416      301.03565      979.48052     -16662.068    
     36000   1.0889088      293.42838     -162.76225     -16767.566    
     37000   1.080415       293.44634     -816.9938      -16801.666    
     38000   1.0792407      291.78117     -1065.8526     -16716.378    
     39000   1.0866821      304.16695      610.47646     -16737.86     
     40000   1.0692393      302.22717     -882.56146     -16718.907    
Loop time of 34.7434 on 24 procs for 10000 steps with 3162 atoms

Performance: 4.974 ns/day, 4.825 hours/ns, 287.825 timesteps/s
99.5% CPU use with 24 MPI tasks x no OpenMP threads

MPI task timing breakdown:
Section |  min time  |  avg time  |  max time  |%varavg| %total
---------------------------------------------------------------
Pair    | 16.266     | 17.086     | 18.336     |  15.7 | 49.18
Bond    | 0.052156   | 0.057894   | 0.064028   |   1.1 |  0.17
Kspace  | 6.6646     | 7.9337     | 8.7538     |  23.1 | 22.84
Neigh   | 0.31342    | 0.31515    | 0.31676    |   0.1 |  0.91
Comm    | 1.2675     | 1.283      | 1.2977     |   0.7 |  3.69
Output  | 0.00036316 | 0.00037979 | 0.00068159 |   0.0 |  0.00
Modify  | 6.3288     | 6.8144     | 7.7756     |  20.0 | 19.61
Other   |            | 1.252      |            |       |  3.60

Nlocal:         131.75 ave         143 max         121 min
Histogram: 3 1 1 3 4 4 3 2 1 2
Nghost:        4544.62 ave        4589 max        4524 min
Histogram: 5 6 2 4 0 3 2 0 1 1
Neighs:        52380.3 ave       60537 max       47047 min
Histogram: 2 6 4 2 0 3 4 2 0 1

Total # of neighbors = 1257128
Ave neighs/atom = 397.57369
Ave special neighs/atom = 2.0341556
Neighbor list builds = 202
Dangerous builds = 0
PPPM initialization ...
  extracting TIP4P info from pair style
  using 12-bit tables for long-range coulomb (../kspace.cpp:342)
  G vector (1/distance) = 0.31178248
  grid = 30 30 30
  stencil order = 5
  estimated absolute RMS force accuracy = 0.0034689719
  estimated relative force accuracy = 1.0446706e-05
  using double precision KISS FFT
  3d grid and FFT values/proc = 5610 1800
Generated 0 of 15 mixed pair_coeff terms from arithmetic mixing rule
Setting up Verlet run ...
  Unit style    : real
  Current step  : 40000
  Time step     : 0.5
Per MPI rank memory allocation (min/avg/max) = 15.57 | 15.61 | 15.65 Mbytes
   Step        Density          Temp          Press          TotEng    
     40000   1.0692393      302.22717      1472.1632     -16718.91     
     41000   1.0698417      289.94478     -712.99448     -16879.738    
     42000   1.0935594      296.5759       213.90922     -16754.264    
     43000   1.0866333      289.63156     -160.93363     -16819.407    
     44000   1.0885385      299.1889      -895.73282     -16747.315    
     45000   1.1034391      305.24064      903.76072     -16760.745    
     46000   1.0762823      288.91694     -789.20559     -16840.663    
     47000   1.0844706      301.66811      575.40696     -16706.551    
     48000   1.0948797      305.25821     -194.51755     -16775.211    
     49000   1.0904487      289.20724     -168.05614     -16849.725    
     50000   1.0793207      296.22269     -525.53066     -16768.212    
Loop time of 35.6463 on 24 procs for 10000 steps with 3162 atoms

Performance: 12.119 ns/day, 1.980 hours/ns, 280.534 timesteps/s
99.5% CPU use with 24 MPI tasks x no OpenMP threads

MPI task timing breakdown:
Section |  min time  |  avg time  |  max time  |%varavg| %total
---------------------------------------------------------------
Pair    | 15.852     | 17.15      | 18.03      |  14.3 | 48.11
Bond    | 0.05311    | 0.057765   | 0.061907   |   0.8 |  0.16
Kspace  | 7.024      | 7.9118     | 9.1967     |  21.0 | 22.20
Neigh   | 0.92426    | 0.92929    | 0.93525    |   0.3 |  2.61
Comm    | 1.3291     | 1.3419     | 1.3522     |   0.5 |  3.76
Output  | 0.00033481 | 0.00035193 | 0.00065245 |   0.0 |  0.00
Modify  | 6.5257     | 6.9903     | 7.9594     |  19.7 | 19.61
Other   |            | 1.265      |            |       |  3.55

Nlocal:         131.75 ave         147 max         115 min
Histogram: 1 1 1 3 4 4 6 1 2 1
Nghost:        4573.62 ave        4608 max        4538 min
Histogram: 2 2 1 1 4 5 5 1 1 2
Neighs:        52849.2 ave       59062 max       45706 min
Histogram: 2 0 1 3 7 3 3 1 2 2

Total # of neighbors = 1268380
Ave neighs/atom = 401.13219
Ave special neighs/atom = 2.0341556
Neighbor list builds = 591
Dangerous builds = 0
  create bodies CPU = 0.000 seconds
  1054 rigid bodies with 3162 atoms
  1.490117 = max distance from body owner to body atom
PPPM initialization ...
  extracting TIP4P info from pair style
  using 12-bit tables for long-range coulomb (../kspace.cpp:342)
  G vector (1/distance) = 0.31200647
  grid = 30 30 30
  stencil order = 5
  estimated absolute RMS force accuracy = 0.0034368503
  estimated relative force accuracy = 1.0349972e-05
  using double precision KISS FFT
  3d grid and FFT values/proc = 5610 1800
Generated 0 of 15 mixed pair_coeff terms from arithmetic mixing rule
Setting up Verlet run ...
  Unit style    : real
  Current step  : 0
  Time step     : 1
Per MPI rank memory allocation (min/avg/max) = 15.57 | 15.61 | 15.65 Mbytes
   Step        Density          Temp          Press          TotEng    
         0   1.0793207      296.22269      1826.3811     -16768.212    
      1000   1.0861664      297.94923     -176.99921     -16850.198    
      2000   1.078601       299.36836      582.6591      -16934.225    
      3000   1.0898308      305.7782       877.42001     -16809.011    
      4000   1.0816809      299.91594      243.71256     -16805.848    
      5000   1.0900396      299.25621      585.63491     -16796.466    
      6000   1.0775118      294.64868     -579.59682     -16814.638    
      7000   1.094785       295.20765      549.47668     -16882.106    
      8000   1.0750743      295.72929     -614.08847     -16870.368    
      9000   1.0868738      308.65741      687.44221     -16772.858    
     10000   1.0738314      298.64071     -131.45034     -16868.536    
     11000   1.0719996      292.593        300.38276     -16843.486    
     12000   1.0755676      299.22694      147.5415      -16752.476    
     13000   1.0788677      298.96422     -27.990091     -16824.423    
     14000   1.0851895      297.76161      814.01502     -16896.71     
     15000   1.0725973      297.82478     -258.90362     -16764.987    
     16000   1.0814641      287.44524      933.34874     -16870.25     
     17000   1.0792675      302.98726     -14.218898     -16772.417    
     18000   1.0821236      296.32046      439.03502     -16776.841    
     19000   1.0849698      296.76032     -34.023707     -16819.68     
     20000   1.078378       291.29139      54.111014     -16773.784    
     21000   1.0917608      303.03292      515.27177     -16825.739    
     22000   1.0779755      296.68693      53.348999     -16815.801    
     23000   1.0907893      300.99944      274.28842     -16854.082    
     24000   1.0898821      289.99384      4.0436684     -16807.238    
     25000   1.1014877      297.09821      706.43282     -16947.413    
     26000   1.0765233      282.36354     -373.33721     -16829.23     
     27000   1.0914415      292.7856       826.413       -16875.433    
     28000   1.083075       296.34966      176.1717      -16896.271    
     29000   1.0742119      292.83988     -247.6378      -16792.446    
     30000   1.1028077      294.3316       1422.4241     -16902.374    
     31000   1.0768003      301.63131      47.553258     -16843.204    
     32000   1.0821411      294.30421     -414.96104     -16851.031    
     33000   1.0738142      297.91389     -509.70654     -16798.438    
     34000   1.0826068      304.33934      828.36857     -16829.094    
     35000   1.0801659      293.19392      701.65164     -16894.218    
     36000   1.0698843      305.32305      137.37072     -16713.33     
     37000   1.0802783      304.51818      246.48353     -16771.361    
     38000   1.0887085      299.38398      149.21311     -16872.79     
     39000   1.0703826      305.47588     -482.09807     -16868.981    
     40000   1.078233       290.34651     -6.0396287     -16963.113    
     41000   1.0751825      296.1497      -524.78899     -16864.991    
     42000   1.0782967      303.13515     -44.67487      -16839.099    
     43000   1.0825142      303.83771      391.88055     -16739.405    
     44000   1.0811591      304.22586     -93.95177      -16738.325    
     45000   1.0842891      305.55066     -422.06456     -16755.794    
     46000   1.0694748      304.49095     -976.44394     -16794.003    
     47000   1.0828675      303.48261      264.95634     -16778.02     
     48000   1.089015       294.67712     -271.4312      -16798.457    
     49000   1.0838502      303.16515     -538.25048     -16777.567    
     50000   1.0881986      291.2591       164.95979     -16829.62     
     51000   1.0913855      289.81344     -4.5005542     -16892.353    
     52000   1.0693225      300.20012     -733.83654     -16771.064    
     53000   1.0831131      292.87707      675.03141     -16819.818    
     54000   1.0785473      299.2499      -116.59876     -16799.323    
     55000   1.0777761      307.52674     -138.20642     -16689.856    
     56000   1.0822981      297.7074      -72.424174     -16884.156    
     57000   1.0832756      306.84564      768.40974     -16783.082    
     58000   1.0723054      298.79867     -30.523601     -16830.092    
     59000   1.0830121      296.23603      168.06515     -16741.101    
     60000   1.0795155      287.24656      605.2359      -16812.238    
     61000   1.0784818      297.19701     -261.03789     -16813.729    
     62000   1.0693679      304.98107     -260.93809     -16807.678    
     63000   1.0706621      294.537        482.23167     -16907.588    
     64000   1.0809406      301.34075     -302.44858     -16870.21     
     65000   1.0793448      304.3971       724.94897     -16692.751    
     66000   1.0668845      299.92932     -384.86366     -16767.948    
     67000   1.0774825      296.78294     -324.98209     -16859.783    
     68000   1.0764647      297.79656     -360.9458      -16772.681    
     69000   1.0892071      303.13481     -638.22998     -16727.504    
     70000   1.0823947      297.60548     -649.9242      -16769.471    
     71000   1.0879287      293.03637      184.82834     -16809.712    
     72000   1.0903029      296.55983      5.2356793     -16856.655    
     73000   1.0786434      305.91226     -1136.732      -16779.584    
     74000   1.0924632      296.65538      144.42908     -16919.353    
     75000   1.0812943      307.84664      443.4163      -16784.671    
     76000   1.082593       290.7089      -230.44339     -16814.304    
     77000   1.0939681      298.85194      15.385074     -16816.755    
     78000   1.0785393      297.15548      85.079515     -16805.381    
     79000   1.0749354      288.65954     -31.087071     -16917.671    
     80000   1.0844151      297.27707     -219.02161     -16839.405    
     81000   1.0879086      295.01896      125.82252     -16902.228    
     82000   1.0646177      292.11678     -367.60698     -16857.214    
     83000   1.0883731      293.60983      227.62146     -16882.672    
     84000   1.0746313      296.84987     -338.85575     -16783.487    
     85000   1.0807203      289.39111     -450.88744     -16891.427    
     86000   1.0629721      298.50031     -468.06701     -16802.767    
     87000   1.0874878      298.70005      497.85268     -16748.279    
     88000   1.0861749      296.1322       214.07871     -16800.008    
     89000   1.0660554      299.77961      24.638586     -16785.744    
     90000   1.0830704      296.71559      1202.5015     -16802.734    
     91000   1.0720287      304.65365      638.1578      -16718.847    
     92000   1.0717344      294.69341     -693.57847     -16866.445    
     93000   1.0907792      298.81127      420.47938     -16848.401    
     94000   1.0704789      302.08387     -531.1027      -16805.96     
     95000   1.0857691      299.16575      356.04068     -16869.596    
     96000   1.0790933      298.3995       715.26324     -16797.644    
     97000   1.0839266      299.75519      599.67912     -16847.866    
     98000   1.080068       282.84918      138.92784     -16862.919    
     99000   1.0906819      300.02517      300.63902     -16803.934    
    100000   1.0750373      302.7324      -841.28503     -16753.921    
    101000   1.0886159      292.49585     -503.68961     -16865.975    
    102000   1.0697838      299.83683     -552.28814     -16708.704    
    103000   1.0746311      293.13598      466.55121     -16794.232    
    104000   1.072392       287.58296     -566.47139     -16914.93     
    105000   1.0880006      288.68848      403.19071     -16893.873    
    106000   1.0717188      291.724       -189.90009     -16838.776    
    107000   1.0802861      287.24602      174.17446     -16941.837    
    108000   1.065616       302.18308     -238.52763     -16735.393    
    109000   1.075305       306.57395      334.81679     -16783.909    
    110000   1.0675842      303.88691     -919.0038      -16830.074    
    111000   1.0757744      302.21572     -290.70105     -16761.917    
    112000   1.0822455      299.7253       608.29207     -16833.358    
    113000   1.0869563      298.05195      1129.2483     -16760.488    
    114000   1.0745513      296.17202     -149.94206     -16856.532    
    115000   1.0802542      303.05614     -353.09704     -16776.398    
    116000   1.0794495      297.63938      16.605273     -16787.193    
    117000   1.076561       297.94851     -594.7088      -16818.562    
    118000   1.0801556      299.02113     -287.90757     -16739.587    
    119000   1.0909295      303.17508      642.1248      -16820.901    
    120000   1.0839545      299.34578      94.275852     -16849.539    
    121000   1.0969334      295.84193      439.69221     -16873.317    
    122000   1.084429       283.10107     -263.58748     -16914.795    
    123000   1.0841999      296.76415     -1579.3924     -16807.133    
    124000   1.0748338      298.37005     -216.44535     -16737.207    
    125000   1.0849568      297.58749      318.17947     -16802.052    
    126000   1.0742702      296.10201     -797.52889     -16839.96     
    127000   1.0804933      299.42412     -18.24206      -16794.071    
    128000   1.0776204      291.36131     -74.374879     -16794.124    
    129000   1.0688959      297.9342       35.226813     -16740.014    
    130000   1.0831125      292.91718      104.38675     -16766.08     
    131000   1.0768045      288.64358     -379.88247     -16804.113    
    132000   1.081043       302.33197      536.71116     -16813.829    
    133000   1.0816525      299.46045     -375.50559     -16770.913    
    134000   1.0819066      297.09137     -293.42654     -16908.287    
    135000   1.0916424      300.38508      37.249426     -16812.172    
    136000   1.0730367      298.81676     -735.34077     -16793.883    
    137000   1.07739        313.03469      692.20956     -16703.336    
    138000   1.0810157      299.49341      560.72969     -16755.388    
    139000   1.0757292      304.67636      367.35542     -16709.057    
    140000   1.070769       301.77858      23.912239     -16864.511    
    141000   1.0810064      300.31493      468.2019      -16833.322    
    142000   1.0832337      307.90267     -176.45902     -16730.124    
    143000   1.0672221      293.21582     -989.56169     -16862.511    
    144000   1.0847808      294.54713      1487.6505     -16803.465    
    145000   1.0599831      293.7304      -299.79736     -16713.506    
    146000   1.0678299      287.96255     -403.6235      -16895.809    
    147000   1.0730146      310.67897      250.99349     -16719.35     
    148000   1.0711644      302.53197     -119.78073     -16758.329    
    149000   1.0733581      295.2399       103.8778      -16882.598    
    150000   1.0775213      300.05766     -118.09537     -16743.36     
    151000   1.0729738      297.62372     -188.74092     -16783.046    
    152000   1.0874992      299.16372      205.31227     -16723.353    
    153000   1.080354       301.09722     -263.41623     -16755.882    
    154000   1.0807136      292.85316      164.56887     -16831.723    
    155000   1.0703542      303.09606      765.96098     -16802.732    
    156000   1.0717848      300.58517     -739.24329     -16928.749    
    157000   1.0945386      298.04383      464.86448     -16802.562    
    158000   1.0727113      299.07491     -822.10924     -16722.488    
    159000   1.075657       298.35331     -74.655828     -16837.636    
    160000   1.0695306      294.87393     -246.16914     -16757.837    
    161000   1.0782862      301.21876      354.4304      -16774.638    
    162000   1.0770109      296.26801     -563.74043     -16763.107    
    163000   1.1010306      302.45877      310.72958     -16841.074    
    164000   1.0844501      297.342        44.255799     -16880.125    
    165000   1.0735418      297.67746     -202.98657     -16843.952    
    166000   1.0844838      307.53011      829.91664     -16580.086    
    167000   1.0685038      294.64736     -422.15844     -16858.389    
    168000   1.0896389      301.2754       365.07734     -16796.067    
    169000   1.0742701      297.06339      280.9993      -16830.356    
    170000   1.0837857      300.10344     -88.695174     -16822.189    
    171000   1.0742279      305.51376     -405.65183     -16741.23     
    172000   1.0731264      296.19431      87.180889     -16858.929    
    173000   1.0852938      302.93922     -121.285       -16788.788    
    174000   1.083692       304.99845      443.77274     -16824.715    
    175000   1.0803977      295.05552      388.9671      -16794.72     
    176000   1.0995533      296.50439      1448.859      -16883.122    
    177000   1.0817167      296.33392     -166.85023     -16750.809    
    178000   1.0674765      303.32755     -762.49395     -16721.645    
    179000   1.090506       299.58446     -38.796946     -16842.06     
    180000   1.0773253      293.27747      117.2264      -16901.783    
    181000   1.083503       301.68564      974.87635     -16779.206    
    182000   1.0743811      299.18344     -1466.3964     -16873.492    
    183000   1.0694667      298.3493      -532.36799     -16777.045    
    184000   1.083137       292.99142     -72.822142     -16955.212    
    185000   1.0702906      290.30739     -504.90537     -16849.339    
    186000   1.0744927      305.49617     -159.29054     -16781.33     
    187000   1.0744163      305.4466       122.99051     -16806.998    
    188000   1.0779368      292.07382      161.89722     -16937.197    
    189000   1.0875525      293.35216      209.09863     -16801.087    
    190000   1.0791376      301.88154     -151.92135     -16870.71     
    191000   1.0735273      294.63067     -445.70351     -16881.642    
    192000   1.081394       303.4796      -201.99581     -16813.768    
    193000   1.0793332      302.1345      -21.268408     -16793.802    
    194000   1.0748468      293.14831     -114.65008     -16875.822    
    195000   1.07152        308.08852     -527.32616     -16716.087    
    196000   1.0822531      287.48468     -155.90979     -16999.952    
    197000   1.0684571      294.98097     -550.52716     -16799.119    
    198000   1.0660994      296.62137     -536.7435      -16867.084    
    199000   1.0861609      308.09908      238.41874     -16798.989    
    200000   1.0785442      290.75603     -518.99716     -16783.144    
    201000   1.0814452      291.09606      178.22854     -16848.171    
    202000   1.0798997      300.35306      456.87885     -16826.218    
    203000   1.0866094      296.10181      285.87854     -16901.474    
    204000   1.0730322      297.39712     -417.79001     -16794.685    
    205000   1.0754536      295.20933     -104.41701     -16832.212    
    206000   1.0794812      294.60719      445.14058     -16936.372    
    207000   1.0852698      296.39848      700.33639     -16885.654    
    208000   1.0747977      298.33943      364.81908     -16787.081    
    209000   1.0715293      297.14649     -708.78917     -16892.557    
    210000   1.0818777      295.24873      653.01551     -16804.626    
    211000   1.0637331      304.6532      -358.18896     -16735.446    
    212000   1.0692127      301.9178       162.12236     -16912.428    
    213000   1.0564503      303.85584     -596.29627     -16757.239    
    214000   1.0761127      304.5055       382.3353      -16844.292    
    215000   1.0694557      291.92293     -702.16811     -16858.68     
    216000   1.0848985      307.59544      495.44465     -16870.387    
    217000   1.0715224      290.58833     -500.62672     -16872.186    
    218000   1.0762617      299.17574      259.95672     -16761.37     
    219000   1.085267       298.66871     -187.69633     -16831.802    
    220000   1.086627       303.43383      36.243919     -16732.637    
    221000   1.0818597      307.02744     -851.66811     -16742.2      
    222000   1.0894734      299.86112     -21.008754     -16824.271    
    223000   1.0850762      292.75482      307.61954     -16801.877    
    224000   1.0795924      288.76019     -327.89459     -16900.192    
    225000   1.0824058      295.50163      592.55301     -16880.517    
    226000   1.0866302      301.73511      88.808851     -16852.347    
    227000   1.0828353      299.84905      914.68451     -16786.597    
    228000   1.0744781      298.73215      358.42014     -16787.302    
    229000   1.0705605      305.44797     -83.850782     -16784.725    
    230000   1.0747736      299.65043      275.78493     -16862.986    
    231000   1.0666808      301.99753      399.51695     -16809.264    
    232000   1.0805099      295.38861      484.66715     -16770.339    
    233000   1.0755025      302.30748     -443.94131     -16773.069    
    234000   1.0670331      294.10179      117.27714     -16914.388    
    235000   1.0860418      297.5028       941.53556     -16816.298    
    236000   1.0757537      291.42993     -308.18339     -16893.697    
    237000   1.0742259      295.1021       353.24621     -16903.52     
    238000   1.0819832      290.15017      1106.9681     -16942.158    
    239000   1.0730157      289.71937      787.44996     -16825.7      
    240000   1.0808932      286.87724      105.40973     -16988.635    
    241000   1.0811922      291.70454     -656.1316      -16859.172    
    242000   1.0732681      288.84913     -722.32899     -16881.7      
    243000   1.0936346      302.13995      566.13284     -16760.205    
    244000   1.0728921      298.83544     -1079.0047     -16803.404    
    245000   1.0825635      295.57453      51.441938     -16826.771    
    246000   1.0703174      289.42116     -256.34417     -16867.632    
    247000   1.0793703      297.00213      200.14971     -16849.06     
    248000   1.0732676      307.92643     -495.47928     -16816.731    
    249000   1.0912836      292.35727      936.06582     -16829.847    
    250000   1.0680007      295.98989     -135.05975     -16708.268    
    251000   1.0898577      297.89458      371.56022     -16778.707    
    252000   1.0694568      295.83965     -1265.0345     -16822.534    
    253000   1.1081942      299.82698      1447.307      -16841.452    
    254000   1.0781483      302.77293     -543.41934     -16794.16     
    255000   1.091267       292.56158      1130.2713     -16871.58     
    256000   1.0774984      308.04678     -22.314304     -16721.057    
    257000   1.0808636      298.26378      23.703865     -16800.454    
    258000   1.0822739      301.03969     -956.48995     -16736.185    
    259000   1.0815393      301.09055     -755.6562      -16829.485    
    260000   1.0762492      296.84518     -172.15578     -16779.426    
    261000   1.0816698      296.70087      461.55806     -16789.443    
    262000   1.0792058      290.91698     -150.48553     -16880.912    
    263000   1.0834938      290.12362     -264.08156     -17003.928    
    264000   1.086666       300.68587      72.133924     -16782.599    
    265000   1.0759266      304.41404     -428.02433     -16751.566    
    266000   1.0991286      300.60417      310.42245     -16858.085    
    267000   1.080392       296.30819     -292.74054     -16737.32     
    268000   1.1009137      301.07897      1174.2929     -16778.006    
    269000   1.0812788      298.00037     -558.1137      -16724.776    
    270000   1.0916728      294.79524      92.170119     -16875.569    
    271000   1.0871591      296.83268     -340.30762     -16783.63     
    272000   1.0883333      296.21159     -231.88494     -16846.901    
    273000   1.0772847      304.84303     -505.29376     -16648.971    
    274000   1.0925774      304.26491      55.620741     -16794.071    
    275000   1.0850472      300.67699      157.47935     -16809.301    
    276000   1.0847463      301.32952     -430.90139     -16789.88     
    277000   1.0810679      295.08464      281.93683     -16944.456    
    278000   1.0623892      298.53021     -573.25138     -16866.774    
    279000   1.0747825      307.15973     -254.9872      -16764.427    
    280000   1.0855311      295.51929     -487.21451     -16837.513    
    281000   1.0866916      303.04361     -54.479028     -16799.657    
    282000   1.0859695      306.2992       748.70071     -16764.343    
    283000   1.0752907      302.85869     -271.51338     -16813.019    
    284000   1.0756192      298.07183      290.61477     -16814.479    
    285000   1.0743153      304.76019      103.83787     -16834.965    
    286000   1.0834873      292.46301      168.85035     -16862.209    
    287000   1.0878301      302.43333     -719.91475     -16829.102    
    288000   1.0741383      295.28341     -494.38421     -16896.448    
    289000   1.0853542      297.99328      571.00063     -16833.268    
    290000   1.0637104      295.44708     -492.68913     -16831.168    
    291000   1.0769208      300.82908      0.054526219   -16851.126    
    292000   1.0689417      299.54361     -448.25131     -16774.045    
    293000   1.0858359      296.56249     -177.35816     -16907.968    
    294000   1.0741675      302.26539      152.37468     -16797.117    
    295000   1.0835067      296.24826     -411.63741     -16781.262    
    296000   1.0874514      295.8696      -344.86633     -16760.827    
    297000   1.0819739      301.46534      271.7564      -16877.052    
    298000   1.0883561      294.81994      1272.8472     -16855.4      
    299000   1.064088       298.73905     -675.93512     -16749.098    
    300000   1.0834504      292.21171      860.30531     -17007.559    
    301000   1.0746774      298.64979     -423.52518     -16791.487    
    302000   1.0887892      294.68915     -189.64799     -16999.298    
    303000   1.0825488      295.19291      158.33118     -16833.523    
    304000   1.1035535      289.73695      1237.3901     -16820.625    
    305000   1.0752995      299.94112     -326.90575     -16774.412    
    306000   1.0898076      285.61503      597.54413     -16953.474    
    307000   1.0781195      301.87224      258.41635     -16809.731    
    308000   1.0826258      295.43224      674.7017      -16816.282    
    309000   1.076067       297.11014      469.74889     -16755.929    
    310000   1.0901192      296.20193      441.03148     -16800.191    
    311000   1.072076       307.73134      302.04583     -16738.584    
    312000   1.0863514      289.82014      837.88493     -16907.139    
    313000   1.0744074      297.10612     -977.32094     -16863.142    
    314000   1.0753646      298.66522     -386.33895     -16802.419    
    315000   1.0840239      295.68022      171.02651     -16751.921    
    316000   1.0885958      304.25777      167.22691     -16757.689    
    317000   1.0764325      282.4618       25.320562     -16897.796    
    318000   1.0767469      299.22233     -210.57514     -16769.838    
    319000   1.073889       301.99325     -612.57349     -16752.221    
    320000   1.0814051      291.08323     -121.43812     -16835.425    
    321000   1.074904       298.4649       581.26195     -16759.303    
    322000   1.0899362      302.78841      644.40893     -16767.516    
    323000   1.0727468      290.91873     -348.83599     -16845.308    
    324000   1.071512       306.70051     -217.19333     -16718.57     
    325000   1.0810683      297.2052      -560.59118     -16755.556    
    326000   1.0750328      290.14339     -465.12631     -16864.258    
    327000   1.0858025      301.45704      130.36022     -16806.52     
    328000   1.0810856      304.46619     -472.55145     -16852.477    
    329000   1.0858644      283.77641      550.95447     -16973.099    
    330000   1.0814134      300.11767     -4.931348      -16715.707    
    331000   1.0890456      280.49614      260.7084      -16892.426    
    332000   1.0732546      290.09508      63.208214     -16803.334    
    333000   1.0829025      299.35888      1007.6741     -16741.873    
    334000   1.0850582      292.70512      42.358435     -16801.428    
    335000   1.0960796      292.66984      1039.2968     -16818.853    
    336000   1.0799188      296.24046      287.91254     -16745.802    
    337000   1.0894892      299.53386      681.72914     -16783.699    
    338000   1.0874305      300.06198      303.427       -16753.655    
    339000   1.0716816      295.55373     -787.98354     -16738.181    
    340000   1.0829811      297.08015      680.94981     -16735.12     
    341000   1.0742179      298.97371      351.14564     -16710.482    
    342000   1.0828397      296.59546     -71.286268     -16825.236    
    343000   1.0733969      302.39321     -63.250302     -16731.168    
    344000   1.0826415      297.45807     -574.93855     -16782.012    
    345000   1.0840154      285.00979     -139.80536     -16862.54     
    346000   1.0756746      298.56908      202.85808     -16809.354    
    347000   1.0746963      299.77682     -140.05221     -16887.104    
    348000   1.0760091      303.43838      802.22288     -16788.158    
    349000   1.0849653      302.65948      297.90234     -16776.03     
    350000   1.0653871      294.29749      144.30031     -16764.345    
    351000   1.0916531      297.81799      454.00849     -16831.366    
    352000   1.0755983      292.66799      295.0706      -16776.673    
    353000   1.0839465      302.00007      573.04791     -16705.872    
    354000   1.0726607      290.19579     -307.86892     -16890.967    
    355000   1.0843936      292.7762       433.38985     -16856.497    
    356000   1.0673595      297.31674     -604.73296     -16802.317    
    357000   1.0872934      299.99802      435.83685     -16753.924    
    358000   1.0759959      304.47995     -259.08619     -16780.462    
    359000   1.0921067      294.94506      441.64646     -16760.802    
    360000   1.0912428      304.76526      233.49071     -16736.051    
    361000   1.101405       296.22487     -185.44282     -16825.452    
    362000   1.0924939      311.2217       676.56146     -16711.252    
    363000   1.0782835      292.50163     -1148.425      -16877.796    
    364000   1.0803207      305.80401      803.352       -16715.161    
    365000   1.064437       292.42887     -637.51532     -16819.643    
    366000   1.0837985      293.14524      582.47033     -16741.574    
    367000   1.0784734      287.04115     -467.47965     -16825.645    
    368000   1.0595641      298.77993     -102.34947     -16809.824    
    369000   1.0736251      301.77172      359.06131     -16780.541    
    370000   1.0879637      299.48288      309.58775     -16778.92     
    371000   1.0769653      290.63251      671.75436     -16832.18     
    372000   1.0741431      300.04641     -588.70927     -16847.042    
    373000   1.0756373      294.84786      111.6752      -16834.771    
    374000   1.0816322      302.65544      430.4792      -16890.913    
    375000   1.0717959      294.56826      245.50853     -16859.235    
    376000   1.0809645      298.21315      134.72203     -16845.668    
    377000   1.0878677      304.0097       613.08507     -16734.578    
    378000   1.0810607      297.72906     -681.62231     -16771.264    
    379000   1.1008255      298.76512      127.69821     -16794.605    
    380000   1.0863421      299.17686     -465.48615     -16852.238    
    381000   1.0833216      301.55444      192.52851     -16761.518    
    382000   1.0857412      298.24609      230.77161     -16761.547    
    383000   1.0921915      295.31692      356.59633     -16827.305    
    384000   1.0715334      302.10031      52.000479     -16774.637    
    385000   1.0864235      290.497        511.75513     -16873.195    
    386000   1.0703795      293.98905      203.90546     -16867.306    
    387000   1.0768728      290.1164      -9.4212221     -16972.583    
    388000   1.0748832      301.02428      148.42583     -16730.655    
    389000   1.0863178      300.10591      2.1327516     -16929.786    
    390000   1.0759828      292.77326     -367.34442     -16857.579    
    391000   1.078195       292.92644     -464.73696     -16828.331    
    392000   1.0761263      298.7603      -83.544819     -16661.127    
    393000   1.0803131      303.24019     -2.6338038     -16698.292    
    394000   1.0903236      289.04302      168.32437     -16803.264    
    395000   1.0776677      300.15245      332.08961     -16706.251    
    396000   1.0773561      297.51235      450.43812     -16870.213    
    397000   1.07102        299.54852     -127.00058     -16840.942    
    398000   1.070915       298.40071      727.8982      -16759.326    
    399000   1.0732626      288.91655      395.58427     -16865.468    
    400000   1.0917385      303.67487      467.19393     -16756.778    
    401000   1.0865401      300.3356      -291.24889     -16757.243    
    402000   1.0862468      299.36519     -397.54907     -16811.102    
    403000   1.0758509      288.67342     -93.295726     -16834.118    
    404000   1.0810922      302.41997      33.437866     -16743.325    
    405000   1.0806115      290.53902     -209.84452     -16772.474    
    406000   1.0738175      299.57531     -402.13147     -16751.627    
    407000   1.0887321      291.8035      -446.27806     -16830.436    
    408000   1.0789208      288.65792     -245.26708     -16930.229    
    409000   1.0674614      296.71914     -363.10134     -16742.482    
    410000   1.0865306      294.58434      116.18433     -16846.287    
    411000   1.0865219      302.7625      -225.11714     -16760.471    
    412000   1.0744729      288.95047     -251.83851     -16837.497    
    413000   1.0730057      288.69518     -115.87627     -16829.872    
    414000   1.0881953      305.79852      715.59451     -16758.465    
    415000   1.0707921      299.84059     -1154.5844     -16782.257    
    416000   1.0833687      300.99096      33.544847     -16765.082    
    417000   1.075677       292.40197     -348.7684      -16768.82     
    418000   1.081435       301.85402      700.08099     -16698.371    
    419000   1.068307       298.75094     -501.88254     -16810.251    
    420000   1.082265       290.18711      252.00005     -16790.641    
    421000   1.0911753      301.75022      205.0446      -16757.932    
    422000   1.071351       291.70452     -268.26884     -16797.51     
    423000   1.092617       290.19783     -228.88348     -16855.204    
    424000   1.083784       295.32893     -240.30112     -16818.833    
    425000   1.0802101      299.95728     -174.48617     -16821.261    
    426000   1.0777305      300.23863      448.69137     -16812.83     
    427000   1.0775564      294.38879     -18.823714     -16786.797    
    428000   1.0741311      304.38153      173.86071     -16746.138    
    429000   1.078037       294.23253      489.95394     -16860.428    
    430000   1.0693908      301.40741     -3.6085021     -16813.449    
    431000   1.0677047      298.68828     -1130.4362     -16813.484    
    432000   1.0816876      290.69757      661.27101     -16777.254    
    433000   1.0805401      295.75659      1119.3793     -16739.741    
    434000   1.0743372      298.14009     -271.5991      -16749.804    
    435000   1.0785083      301.4606      -117.24692     -16705.438    
    436000   1.0670485      293.98032     -104.7577      -16803.471    
    437000   1.0851567      295.70407      745.51736     -16856.338    
    438000   1.0756049      291.85326     -26.53418      -16858.532    
    439000   1.0840487      300.84476     -70.439606     -16795.188    
    440000   1.0859558      291.61355     -92.338629     -16791.947    
    441000   1.0679295      293.24359      36.947457     -16810.935    
    442000   1.0849954      290.07793      164.89901     -16902.744    
    443000   1.0860347      296.12687      431.08217     -16857.538    
    444000   1.0846942      293.44896      453.34818     -16800.138    
    445000   1.0808839      306.32698     -364.98983     -16731.707    
    446000   1.0796248      295.804        307.88191     -16954.924    
    447000   1.0733328      292.62953      25.244144     -16837.443    
    448000   1.0752811      290.4057       477.03544     -16818.738    
    449000   1.0715338      298.74375     -284.88223     -16761.273    
    450000   1.0819642      297.81671      116.12863     -16889.531    
    451000   1.0897167      301.30695      185.21806     -16796.712    
    452000   1.0751894      296.57637     -703.10839     -16860.191    
    453000   1.0738584      304.96319      268.83195     -16837.137    
    454000   1.0741724      293.66839      2.2789471     -16885.835    
    455000   1.0733384      286.95479      361.20816     -16849.158    
    456000   1.0757332      294.97437     -400.7487      -16869.095    
    457000   1.0766112      303.5094      -209.93418     -16772.876    
    458000   1.0801511      291.48612      60.487882     -16872.125    
    459000   1.0777753      306.75585     -120.24379     -16690.289    
    460000   1.0851618      298.06544      44.696425     -16718.108    
    461000   1.0863062      300.14137      242.21422     -16759.891    
    462000   1.0885672      305.20179      147.70537     -16777.506    
    463000   1.0746272      298.45041     -1090.8573     -16898.635    
    464000   1.0873711      300.38566      263.46901     -16910.785    
    465000   1.0785099      304.12371     -876.73185     -16786.075    
    466000   1.0896613      296.5143       379.81196     -16887.438    
    467000   1.0756902      298.32406     -736.57957     -16822.765    
    468000   1.0933045      302.16467      427.36835     -16738.898    
    469000   1.0944294      291.45903      463.29604     -16721.846    
    470000   1.0840442      299.03954      124.34301     -16764.846    
    471000   1.0795395      303.73619     -30.982415     -16680.109    
    472000   1.0814075      291.03814      142.22265     -16831.587    
    473000   1.0868975      292.94632      55.568837     -16839.869    
    474000   1.0874193      288.55881     -350.20385     -16809.539    
    475000   1.085011       300.49239      414.98064     -16880.063    
    476000   1.0829448      295.031       -814.25352     -16843.77     
    477000   1.0893537      303.12588      1061.0472     -16766.239    
    478000   1.0743441      300.82973      585.61307     -16747.105    
    479000   1.0750219      300.30268     -868.20055     -16793.874    
    480000   1.08546        298.61677     -180.51133     -16862.046    
    481000   1.0702577      288.84062     -584.67359     -16936.867    
    482000   1.0833417      289.50837      474.9617      -16840.986    
    483000   1.0709833      300.10836     -130.74476     -16846.006    
    484000   1.0630495      297.79372      27.953726     -16800.775    
    485000   1.0618987      295.2851       145.19624     -16831.427    
    486000   1.0680483      291.89015      159.40862     -16924.798    
    487000   1.0839922      308.09194      654.87941     -16671.461    
    488000   1.0790909      300.74021      588.65326     -16778.517    
    489000   1.0847254      296.81789      185.21696     -16815.333    
    490000   1.0785374      295.17826     -224.03977     -16795.076    
    491000   1.0886844      293.30187      218.16076     -16872.979    
    492000   1.0673073      283.96988     -190.91807     -16874.561    
    493000   1.0826481      292.38473      246.31794     -16876.61     
    494000   1.0803205      305.18185     -233.00651     -16764.002    
    495000   1.0868028      292.72288     -523.31633     -16862.57     
    496000   1.0795765      301.69104     -644.58209     -16753.997    
    497000   1.0885208      299.36706      59.475721     -16778.902    
    498000   1.0832484      292.72578      383.5429      -16943.074    
    499000   1.0634803      295.18746     -130.45491     -16810.763    
    500000   1.0738176      301.72172     -34.106324     -16779.311    
    501000   1.0667511      291.67847      303.89161     -16865.457    
    502000   1.0794356      299.24147      819.81172     -16701.166    
    503000   1.0641913      300.15678     -345.79402     -16810.562    
    504000   1.0927519      287.77936      1383.4405     -16917.027    
    505000   1.0772983      303.74582     -328.98487     -16749.795    
    506000   1.0774503      294.39047     -19.551368     -16896.393    
    507000   1.077232       304.03182     -280.35565     -16809.442    
    508000   1.0778668      293.19813      140.75724     -16882.523    
    509000   1.079124       295.24553      317.64861     -16914.98     
    510000   1.0744263      290.92641      823.88485     -16863.075    
    511000   1.081845       300.74671     -149.5909      -16814.137    
    512000   1.0824414      296.86153      11.877183     -16911.651    
    513000   1.0845134      299.07687      282.03137     -16903.527    
    514000   1.0690868      289.90231     -114.53294     -16866.418    
    515000   1.0864492      298.70498      200.52376     -16773.082    
    516000   1.0975216      296.54489      569.05215     -16821.737    
    517000   1.0735826      304.66539     -183.07049     -16797.416    
    518000   1.0793864      305.40123      163.83778     -16790.381    
    519000   1.0741725      300.47381     -670.57998     -16812.622    
    520000   1.0782676      297.32808      31.540972     -16844.762    
    521000   1.0835726      298.26786      345.14177     -16799.555    
    522000   1.0639768      299.94876     -586.7458      -16752.328    
    523000   1.0853344      295.35415      1323.0979     -16911.68     
    524000   1.0655593      302.30261     -537.83914     -16742.061    
    525000   1.0759071      304.81745     -508.8756      -16740.576    
    526000   1.0877735      283.09648      183.51339     -16853.867    
    527000   1.0729962      296.95851     -26.23464      -16683.845    
    528000   1.0819401      297.82073     -730.97388     -16845.405    
    529000   1.0752755      294.79866      241.95686     -16762.769    
    530000   1.0805218      290.82303      37.216074     -16755.998    
    531000   1.0928988      296.59553      234.08183     -16800.074    
    532000   1.0902213      299.8208      -247.6358      -16759.063    
    533000   1.0884726      292.02189     -144.88465     -16871.311    
    534000   1.0883114      292.10989     -221.62445     -16857.564    
    535000   1.0827224      295.47062      190.64998     -16791.459    
    536000   1.0854086      310.57511      212.71372     -16742.668    
    537000   1.0853735      300.25409      26.546136     -16733.683    
    538000   1.0680472      303.61453     -441.68145     -16689.338    
    539000   1.0948861      304.01221      973.59398     -16813.544    
    540000   1.0858346      296.6877      -548.21323     -16757.501    
    541000   1.0828119      300.09611     -471.77448     -16746.402    
    542000   1.0713978      297.60721     -108.93191     -16735.767    
    543000   1.0788741      295.04222      425.93603     -16879.016    
    544000   1.0610103      308.25012     -573.50202     -16699.789    
    545000   1.0713704      302.87877     -571.71477     -16801.315    
    546000   1.0755839      302.65074      245.24713     -16782.299    
    547000   1.0795343      304.74805     -233.82354     -16815.931    
    548000   1.0790387      304.14159      325.23305     -16666.161    
    549000   1.0825164      300.01679      89.28556      -16864.896    
    550000   1.0868569      297.31502      477.68388     -16799.444    
    551000   1.0658144      302.99776      354.25069     -16842.523    
    552000   1.088664       302.74087      424.81873     -16827.206    
    553000   1.0724588      301.65206     -781.13424     -16770.231    
    554000   1.0898111      302.10877      879.75975     -16836.446    
    555000   1.0753365      302.98314     -343.07296     -16817.295    
    556000   1.0840698      302.57967     -494.24035     -16814.632    
    557000   1.0742021      296.40547     -329.05511     -16899.238    
    558000   1.0804065      305.27085      37.703596     -16783.693    
    559000   1.0857231      302.37692      110.47107     -16772.168    
    560000   1.0766659      304.48851     -195.10131     -16841.192    
    561000   1.0806824      300.88399      131.67623     -16746.111    
    562000   1.0769548      297.74373      374.86344     -16670.86     
    563000   1.081316       298.63148      639.45854     -16758.81     
    564000   1.074883       291.20323     -1049.076      -16864.028    
    565000   1.0806863      305.52547      206.25161     -16798.115    
    566000   1.0817731      302.45924      223.05176     -16758.276    
    567000   1.0820412      301.52783     -218.35673     -16703.742    
    568000   1.0945819      291.23438      854.82827     -16954.525    
    569000   1.0859732      291.5708       73.247584     -16909.429    
    570000   1.0783218      297.53852     -23.734882     -16841.999    
    571000   1.0734986      294.61835     -676.09673     -16772.569    
    572000   1.0863511      300.00371      399.16388     -16758.048    
    573000   1.0830144      282.71302      135.35639     -16976.596    
    574000   1.065337       289.30175      24.50318      -16919.946    
    575000   1.0701679      295.65033     -199.6739      -16777.679    
    576000   1.0714152      286.28658     -82.229204     -16762.952    
    577000   1.07996        303.62443     -395.96396     -16827.817    
    578000   1.0793324      298.51798     -290.48619     -16818.767    
    579000   1.0824318      299.84067     -136.22074     -16817.524    
    580000   1.0898526      289.07666      591.59286     -16904.511    
    581000   1.0899492      295.22627      127.31506     -16816.195    
    582000   1.0786985      287.66111     -285.08488     -16914.538    
    583000   1.0817385      294.59937      402.82208     -16800.699    
    584000   1.0820311      292.14364     -598.71105     -16765.382    
    585000   1.0857339      286.29278     -3.8602276     -16896.153    
    586000   1.0838897      300.11629     -292.08627     -16861.652    
    587000   1.0740827      292.53288     -1222.4156     -16916.291    
    588000   1.082284       302.4403      -4.6766629     -16867.802    
    589000   1.08514        292.89042     -4.1887323     -16837.467    
    590000   1.0815342      290.79086     -90.229911     -16879.282    
    591000   1.0779473      297.49307      965.26294     -16751.147    
    592000   1.0774397      299.63089      3.5236967     -16837.053    
    593000   1.08693        298.41883      281.73779     -16803.636    
    594000   1.0787634      291.79852      303.61265     -16715.239    
    595000   1.0833548      304.45979      192.73211     -16729.736    
    596000   1.0672275      307.0102      -788.36682     -16689.067    
    597000   1.0751042      288.25037      1131.9341     -16843.958    
    598000   1.0725916      311.17678      169.797       -16699.462    
    599000   1.0702281      290.22837     -35.833591     -16920.98     
    600000   1.0623324      299.27339      629.86048     -16867.559    
    601000   1.0692701      289.36316      177.80787     -16826.867    
    602000   1.0708725      291.10557     -326.39601     -16914.349    
    603000   1.0860834      306.48992      446.74087     -16761.553    
    604000   1.0773407      300.88806     -352.10714     -16838.565    
    605000   1.0853476      295.26007      73.976276     -16867.27     
    606000   1.0746055      288.05804     -697.1815      -16877.745    
    607000   1.078909       292.62688     -687.35652     -16912.457    
    608000   1.0776854      296.08919      79.690444     -16793.674    
    609000   1.08139        298.3299       215.27106     -16809.638    
    610000   1.08505        283.44203      720.93258     -16882.4      
    611000   1.0727474      298.48551      680.81161     -16675.986    
    612000   1.0819562      308.45506      551.79147     -16755.715    
    613000   1.085692       295.01568      1280.8568     -16846.366    
    614000   1.0802009      309.57053      469.98851     -16770.621    
    615000   1.0811547      303.02063      462.36089     -16879.804    
    616000   1.0921768      302.42445     -273.6734      -16843.431    
    617000   1.0771301      292.45842      9.1876759     -16910.07     
    618000   1.0712144      288.70901      425.51486     -16917.249    
    619000   1.0894727      296.0946       719.85174     -16807.892    
    620000   1.0736732      300.72969      583.17801     -16835.217    
    621000   1.0845515      305.38886      263.1323      -16733.676    
    622000   1.0744633      301.24586     -503.67427     -16780.008    
    623000   1.083807       294.49488     -335.31083     -16797.24     
    624000   1.0823293      295.22633     -570.78498     -16788.533    
    625000   1.0851663      297.42412      335.29232     -16872.728    
    626000   1.0724947      289.90757     -980.52622     -16805.206    
    627000   1.0844434      297.32667      623.11798     -16860.09     
    628000   1.0749787      305.6951      -701.95639     -16694        
    629000   1.0945127      298.30713      139.59181     -16742.538    
    630000   1.0820603      305.5577      -734.56237     -16781.623    
    631000   1.0949355      300.76422     -57.477518     -16780.07     
    632000   1.0891123      294.36793     -231.57159     -16716.314    
    633000   1.0942755      290.07198      494.36035     -16806.327    
    634000   1.0832586      306.03001     -426.44565     -16630.435    
    635000   1.0836617      303.20141     -286.83286     -16837.151    
    636000   1.0842154      300.2624      -674.56674     -16767.318    
    637000   1.0833985      291.14538     -444.14148     -16855.244    
    638000   1.0897913      297.75252      188.39391     -16728.773    
    639000   1.0835677      295.20183      530.12155     -16808.532    
    640000   1.064629       304.38245     -529.82293     -16671.472    
    641000   1.0769586      300.5924       224.68046     -16789.119    
    642000   1.080115       293.43451      444.84766     -16735.621    
    643000   1.0708618      300.11182     -361.21573     -16824.971    
    644000   1.0936099      292.75707      435.6048      -16984.07     
    645000   1.0769417      296.29163     -224.57326     -16798.143    
    646000   1.0823973      296.03396      52.482101     -16831.156    
    647000   1.0820768      306.49441      59.63468      -16799.034    
    648000   1.0906802      296.29311      833.74387     -16797.555    
    649000   1.0875327      309.29885     -420.64099     -16752.436    
    650000   1.0804107      299.62744      429.55357     -16849.169    
    651000   1.059581       297.83808     -410.73468     -16679.827    
    652000   1.080026       289.8665       1017.6384     -16790.553    
    653000   1.0720093      293.31362      72.078781     -16839.601    
    654000   1.0709251      299.8251      -452.88628     -16740.775    
    655000   1.087893       291.24386      641.81047     -16890.026    
    656000   1.0780734      297.53956      418.18164     -16742.698    
    657000   1.0768659      292.2213      -180.11262     -16757.363    
    658000   1.0907537      296.44518     -297.18231     -16810.821    
    659000   1.0788537      298.60139      46.116189     -16803.669    
    660000   1.094616       291.61726      816.76862     -16836.285    
    661000   1.0638806      308.8922      -1005.7763     -16634.551    
    662000   1.0793784      290.00354      1331.6331     -16797.91     
    663000   1.0689967      294.65737     -285.29647     -16793.047    
    664000   1.0752364      302.38345      239.22059     -16771.866    
    665000   1.0734221      287.39321     -99.069665     -16861.595    
    666000   1.0661062      298.54835     -764.04826     -16734.075    
    667000   1.0739997      298.01049      529.14912     -16797.259    
    668000   1.0891084      314.42227      827.85569     -16615.379    
    669000   1.074722       289.49403      13.572009     -16903.662    
    670000   1.0734707      292.80681     -349.76779     -16893.287    
    671000   1.0762331      300.33433     -430.87369     -16843.314    
    672000   1.082624       302.52513     -224.54045     -16722.389    
    673000   1.0861615      298.38814      407.51647     -16816.026    
    674000   1.0769848      302.19871      144.99538     -16704.896    
    675000   1.0847157      292.96388      4.3942044     -16772.788    
    676000   1.0773977      292.76127     -588.71997     -16896.947    
    677000   1.0924091      283.99685      891.11673     -16828.462    
    678000   1.0742805      295.90852     -944.48625     -16826.026    
    679000   1.087572       292.76841      278.59545     -16886.964    
    680000   1.0758167      303.83438     -368.79703     -16692.582    
    681000   1.0828618      312.68754      369.87831     -16718.74     
    682000   1.0890804      292.52591      1053.3197     -16762.639    
    683000   1.0795607      297.57506     -151.85725     -16789.103    
    684000   1.0840671      295.88056     -49.599815     -16932.971    
    685000   1.0806715      296.25378      267.41844     -16827.085    
    686000   1.0837379      296.18437      158.60375     -16815.469    
    687000   1.0812767      300.27832     -983.53378     -16887.824    
    688000   1.0950561      300.57263      625.38893     -16774.512    
    689000   1.0763948      298.81928     -699.33218     -16795.195    
    690000   1.0827468      285.43652      800.15152     -16870.697    
    691000   1.0776116      301.65252     -240.94378     -16842.228    
    692000   1.068436       294.69749     -598.30993     -16820.47     
    693000   1.07473        292.29484     -129.83729     -16882.75     
    694000   1.076442       308.25816      402.71233     -16647.329    
    695000   1.0833044      300.33441      90.351025     -16858.779    
    696000   1.0815427      297.82087      537.07703     -16855.946    
    697000   1.0740228      304.76571     -631.39337     -16789.892    
    698000   1.0741984      293.80354      345.93229     -16887.571    
    699000   1.0721765      302.63248     -568.81095     -16814.104    
    700000   1.067197       298.41463     -90.760354     -16798.207    
    701000   1.0829993      304.47542      964.42958     -16741.447    
    702000   1.0817471      290.48165      0.32533952    -16920.451    
    703000   1.0715723      302.53768     -77.956964     -16826.71     
    704000   1.0883018      299.4842       753.88559     -16785.713    
    705000   1.0812526      308.37249     -125.6784      -16757.466    
    706000   1.0790553      296.29562      183.64203     -16859.366    
    707000   1.084163       294.12971      1505.2092     -16904.758    
    708000   1.0709696      295.42706      40.53004      -16832.82     
    709000   1.0814583      296.4421      -310.10044     -16921.342    
    710000   1.0782751      289.14589     -616.91806     -16832.444    
    711000   1.0830398      286.23244      698.62832     -16884.959    
    712000   1.0930886      307.60433      975.80143     -16688.769    
    713000   1.0891402      297.05496     -317.55844     -16818.422    
    714000   1.092435       301.52645      412.66587     -16795.539    
    715000   1.0911391      295.81196      156.563       -16805.524    
    716000   1.0764016      295.00622      367.36757     -16788.888    
    717000   1.0777313      299.80257     -197.55704     -16801.732    
    718000   1.0747957      297.99145     -704.99543     -16800.081    
    719000   1.08617        304.93941      231.2518      -16836.828    
    720000   1.0780783      296.94363     -81.258407     -16812.861    
    721000   1.0812341      301.0908       379.51642     -16875.244    
    722000   1.088718       303.2128       447.96828     -16844.515    
    723000   1.0802587      305.65351     -27.698263     -16737.978    
    724000   1.079775       302.87761     -258.42687     -16779.295    
    725000   1.0752974      298.67396      287.35415     -16763.386    
    726000   1.0742015      298.00019     -13.064955     -16787.521    
    727000   1.0702351      294.16113      316.9237      -16842.48     
    728000   1.0716942      297.29037      74.135806     -16816.534    
    729000   1.0771456      300.26347     -400.70297     -16754.856    
    730000   1.080679       299.52128      445.45586     -16870.37     
    731000   1.0730473      304.3688      -208.91646     -16812.862    
    732000   1.0746219      291.35305     -316.61322     -16901.795    
    733000   1.0705585      296.66108      191.80829     -16759.655    
    734000   1.0845057      300.80851      745.18076     -16816.637    
    735000   1.0863322      299.07466     -400.98568     -16886.68     
    736000   1.0865015      292.87241      235.45236     -16802.106    
    737000   1.0852621      297.96487     -106.62997     -16777.497    
    738000   1.0782013      285.70959     -986.06001     -16821.924    
    739000   1.0873897      292.13256     -28.877839     -16873.066    
    740000   1.0704357      301.64699     -684.04468     -16714.514    
    741000   1.0754789      296.47203      736.28441     -16765.006    
    742000   1.0672942      300.40818     -556.80737     -16769.226    
    743000   1.0900183      293.06553      199.23385     -16857.945    
    744000   1.0722788      299.50202     -162.40272     -16782.431    
    745000   1.0736818      307.87205      170.64307     -16661.921    
    746000   1.0802699      304.74303      205.25727     -16706.062    
    747000   1.0649398      293.25878      593.81112     -16735.155    
    748000   1.0808289      293.3399       611.9627      -16861.84     
    749000   1.0765042      293.22499     -118.39752     -16839.97     
    750000   1.0909135      302.54881      509.39936     -16792.111    
    751000   1.0755575      293.65217     -851.35164     -16868.98     
    752000   1.0862431      304.35383     -466.52996     -16710.748    
    753000   1.0817164      297.73334     -206.42714     -16792.017    
    754000   1.0847819      294.52394      264.9651      -16816.188    
    755000   1.0822725      297.93793      919.98201     -16751.532    
    756000   1.0733328      308.87867     -562.44782     -16790.019    
    757000   1.082849       301.14868     -510.96838     -16853.988    
    758000   1.085386       294.68011      574.54075     -16916.122    
    759000   1.0617395      296.7983      -423.12082     -16770.285    
    760000   1.0768468      298.78515     -765.8926      -16780.524    
    761000   1.0741467      299.7979      -570.77891     -16778.903    
    762000   1.0824497      304.15488      1072.7849     -16786        
    763000   1.0802861      293.12154     -196.94935     -16851.864    
    764000   1.088867       295.74163      197.32624     -16818.323    
    765000   1.0758307      294.01292      691.64104     -16881.6      
    766000   1.082959       297.27849      763.44666     -16869.443    
    767000   1.0719145      308.56661      341.24643     -16716.603    
    768000   1.0836497      292.91206      404.66218     -16919.474    
    769000   1.0700088      296.36935     -600.09827     -16851.574    
    770000   1.0796318      298.08838     -139.15544     -16872.992    
    771000   1.0655734      290.66244      571.113       -16888.502    
    772000   1.076422       285.4395       909.15201     -16960.571    
    773000   1.0689443      301.75825     -512.42931     -16725.819    
    774000   1.0700972      303.75839     -267.66584     -16836.622    
    775000   1.0711184      304.70574     -203.60613     -16781.117    
    776000   1.0847574      295.14033     -73.87735      -16861.958    
    777000   1.055944       290.74446     -662.52553     -16898.873    
    778000   1.0643931      295.28639      40.425425     -16913.384    
    779000   1.0781476      297.54042      821.21327     -16808.748    
    780000   1.0853263      306.62086      1132.6601     -16877.034    
    781000   1.0806892      295.67064      452.26802     -16883.774    
    782000   1.074655       293.21001      104.57972     -16903.557    
    783000   1.0784694      306.828        814.42041     -16778.042    
    784000   1.0641677      288.97327     -692.61484     -16923.649    
    785000   1.0914556      302.88918      643.34653     -16828.157    
    786000   1.0755009      288.73518      80.496086     -16889.265    
    787000   1.0860182      304.23243      558.19945     -16860.472    
    788000   1.0643787      291.562        62.542386     -16799.551    
    789000   1.0876229      288.86862      295.92032     -16919.732    
    790000   1.082336       299.03166     -249.75937     -16859.716    
    791000   1.0873108      289.78802      166.83633     -16809.685    
    792000   1.092398       308.9959      -378.01478     -16741.516    
    793000   1.0904777      306.51047     -93.028051     -16820.838    
    794000   1.0887459      300.46309      622.82077     -16953.546    
    795000   1.0812716      290.89513      72.737123     -16951.973    
    796000   1.0808548      296.79185      264.36715     -16793.153    
    797000   1.0706817      295.96941     -575.36874     -16847.807    
    798000   1.0818388      297.89975     -162.2693      -16882.706    
    799000   1.0693945      297.44369     -127.25437     -16747.84     
    800000   1.0876084      297.63636     -785.74345     -16884.18     
    801000   1.088442       310.70637     -289.00742     -16800.235    
    802000   1.0826568      303.40883      185.44859     -16807.686    
    803000   1.0732884      292.01862     -492.50093     -16809.277    
    804000   1.0849354      300.58643     -294.94053     -16863.196    
    805000   1.0753656      302.06526     -471.8199      -16803.015    
    806000   1.0952776      303.5259       169.28681     -16837.043    
    807000   1.0779925      296.39583      512.03978     -16818.087    
    808000   1.0811863      296.24117     -60.454506     -16845.863    
    809000   1.0761976      304.28661     -292.54932     -16787.156    
    810000   1.0719704      302.32848     -411.67859     -16830.498    
    811000   1.0813935      300.06503      5.3329509     -16769.907    
    812000   1.0793967      306.8294      -328.55968     -16738.574    
    813000   1.1017216      292.45768      873.20109     -16833.359    
    814000   1.0822483      301.82794     -295.49141     -16669.737    
    815000   1.0974365      295.87497      1244.7638     -16837.982    
    816000   1.0672         294.88598     -894.17764     -16798.775    
    817000   1.0769648      297.96204      48.317011     -16937.783    
    818000   1.077072       298.53472     -451.76576     -16753.932    
    819000   1.092049       304.57754      826.35965     -16882.296    
    820000   1.075697       295.05395     -630.85723     -16804.765    
    821000   1.0900845      295.63959      4.2386606     -16883.263    
    822000   1.0700334      285.88045     -489.10764     -16879.123    
    823000   1.0712905      304.5879       492.79925     -16768.846    
    824000   1.0710096      292.35447      358.64533     -16880.648    
    825000   1.0776876      294.03671      277.61629     -16863.708    
    826000   1.0869593      299.2814       236.02586     -16876.692    
    827000   1.074915       304.81407      58.574678     -16759.967    
    828000   1.0969703      298.05993      352.93085     -16877.246    
    829000   1.068051       303.06317     -821.64561     -16737.181    
    830000   1.0850415      294.65934      421.50466     -16885.364    
    831000   1.0855201      297.10022     -25.942773     -16777.626    
    832000   1.0954791      295.94661     -249.0176      -16874.357    
    833000   1.0785985      306.30634     -201.84038     -16770.371    
    834000   1.0708882      296.91909     -228.31198     -16876.175    
    835000   1.0790493      295.37455      146.99083     -16785.864    
    836000   1.0784361      295.23183     -473.81638     -16792.569    
    837000   1.074385       311.43817      344.70922     -16642.783    
    838000   1.0882737      296.99285      492.34023     -16857.435    
    839000   1.0834308      300.82402      324.96551     -16764.671    
    840000   1.0817185      300.16418     -541.16059     -16782.215    
    841000   1.0788183      298.08219      571.2861      -16818.11     
    842000   1.075258       308.15656      431.22215     -16757.933    
    843000   1.077441       287.76829      646.8324      -17046.086    
    844000   1.0795615      299.14813      655.8423      -16813.613    
    845000   1.0779127      300.61162      0.077379292   -16753.432    
    846000   1.0871792      298.88852      252.30588     -16906.611    
    847000   1.0877748      299.60882      344.51366     -16886.374    
    848000   1.0856821      302.49896      385.86659     -16800.542    
    849000   1.0846934      293.96944     -357.72823     -16771.689    
    850000   1.0844576      288.38498      68.831787     -16821.536    
    851000   1.0680649      294.93907     -618.18324     -16776.093    
    852000   1.0735646      297.90787     -11.20096      -16849.895    
    853000   1.0946946      307.98925      828.71701     -16862.682    
    854000   1.0674969      291.19537     -701.20043     -16885.1      
    855000   1.0935508      285.86617     -122.07573     -16964.015    
    856000   1.0697271      296.15261     -304.83141     -16777.196    
    857000   1.0804267      299.47388      161.85024     -16917.101    
    858000   1.075096       293.47734     -623.79714     -16849.048    
    859000   1.0782664      303.23192      36.629793     -16785.563    
    860000   1.0860249      301.81226      587.82104     -16761.793    
    861000   1.0850357      297.3413       76.565266     -16844.975    
    862000   1.0799986      290.59907      389.16599     -16804.626    
    863000   1.085284       302.22001      1015.3132     -16844.967    
    864000   1.0597134      288.55714     -1360.9813     -16796.001    
    865000   1.0810777      292.30066     -527.91442     -16877.621    
    866000   1.079033       287.488       -390.69297     -16783.007    
    867000   1.0815993      293.942       -254.1051      -16797.7      
    868000   1.0814673      295.86577     -6.3431617     -16920.978    
    869000   1.0613137      304.10407      603.27196     -16722.363    
    870000   1.0583472      288.06872     -174.3467      -16754.065    
    871000   1.0777094      293.1345       316.16348     -16817.203    
    872000   1.0807319      295.82977     -499.44716     -16854.067    
    873000   1.083612       293.70482      256.35637     -16857.015    
    874000   1.0817301      302.45568     -572.03491     -16712.461    
    875000   1.0754973      290.03252     -532.16058     -16860.324    
    876000   1.0884603      294.81802      217.47935     -16834.056    
    877000   1.073339       293.66746     -134.42221     -16853.874    
    878000   1.0867931      299.07023     -452.20998     -16797.957    
    879000   1.0887522      289.07302     -98.040067     -16895.8      
    880000   1.0684177      303.3673       131.71096     -16779.615    
    881000   1.0830856      305.30253      1020.4664     -16782.207    
    882000   1.0823009      309.25609     -681.68817     -16772.929    
    883000   1.0714055      294.23616     -423.06618     -16738.858    
    884000   1.0893219      297.0693       191.34681     -16817.594    
    885000   1.0742996      295.73343     -664.20449     -16736.865    
[...]
  10291000   1.0800821      292.81165      150.39737     -15693.587    
  10292000   1.0800821      299.75754      800.86164     -15629.108    
  10293000   1.0800821      298.95519     -115.71478     -15588.875    
  10294000   1.0800821      299.99667     -894.34596     -15682.719    
  10295000   1.0800821      298.97662      109.31918     -15679.861    
  10296000   1.0800821      307.41051     -196.04933     -15598.379    
  10297000   1.0800821      309.45957      69.961981     -15533.377    
  10298000   1.0800821      288.10055      180.50127     -15758.421    
  10299000   1.0800821      300.44949     -159.02708     -15613.424    
  10300000   1.0800821      295.86478     -375.41295     -15523.975    
  10301000   1.0800821      300.85993      224.57961     -15595.011    
  10302000   1.0800821      300.78827     -374.45286     -15625.535    
  10303000   1.0800821      290.80971      422.89683     -15748.969    
  10304000   1.0800821      299.08432     -88.691631     -15633.926    
  10305000   1.0800821      295.98525      390.31722     -15638.829    
  10306000   1.0800821      292.27664      257.72093     -15670.955    
  10307000   1.0800821      302.12088     -312.13962     -15580.623    
  10308000   1.0800821      300.43196     -106.80093     -15594.589    
  10309000   1.0800821      303.27081     -1007.958      -15578.181    
  10310000   1.0800821      292.69083      321.82792     -15669.167    
  10311000   1.0800821      304.49882     -168.50661     -15628.798    
  10312000   1.0800821      302.44361      201.42557     -15549.135    
  10313000   1.0800821      297.35043     -265.14669     -15656.733    
  10314000   1.0800821      305.27936     -225.14114     -15657.035    
  10315000   1.0800821      282.43888      254.62885     -15742.449    
  10316000   1.0800821      307.72486      219.5451      -15583.792    
  10317000   1.0800821      301.28093     -386.70788     -15712.897    
  10318000   1.0800821      295.05279     -167.01742     -15656.382    
  10319000   1.0800821      292.91347      86.238714     -15670.686    
  10320000   1.0800821      293.48926      565.83865     -15609.461    
  10321000   1.0800821      299.58174      413.24762     -15571.423    
  10322000   1.0800821      293.7248      -1416.4031     -15599.429    
  10323000   1.0800821      301.39595     -887.13384     -15634.358    
  10324000   1.0800821      301.23684     -503.49976     -15586.368    
  10325000   1.0800821      312.96077      10.875289     -15518.773    
  10326000   1.0800821      293.38435     -786.41042     -15588.333    
  10327000   1.0800821      293.70368      328.003       -15640.411    
  10328000   1.0800821      307.04508     -172.45879     -15608.123    
  10329000   1.0800821      301.74409     -266.95598     -15616.788    
  10330000   1.0800821      295.43245     -589.92079     -15607.396    
  10331000   1.0800821      304.03872      359.67345     -15567.269    
  10332000   1.0800821      292.58957      160.91615     -15719.983    
  10333000   1.0800821      301.94028     -174.0709      -15573.777    
  10334000   1.0800821      291.79494     -658.25943     -15665.018    
  10335000   1.0800821      293.72771     -38.151706     -15649.473    
  10336000   1.0800821      296.95699      926.1282      -15706.632    
  10337000   1.0800821      292.94208      386.36473     -15670.209    
  10338000   1.0800821      301.39791      602.66517     -15650.644    
  10339000   1.0800821      297.71312     -66.539624     -15723.505    
  10340000   1.0800821      294.15811      166.97817     -15662.268    
  10341000   1.0800821      303.77525      64.489151     -15644.873    
  10342000   1.0800821      298.41133      99.261985     -15673.153    
  10343000   1.0800821      293.32984      229.04019     -15756.93     
  10344000   1.0800821      303.83786      431.86897     -15566.67     
  10345000   1.0800821      287.59277     -127.8937      -15631.932    
  10346000   1.0800821      297.18495     -248.36019     -15698.522    
  10347000   1.0800821      301.13105      289.04926     -15730.303    
  10348000   1.0800821      295.35917      256.12168     -15660.628    
  10349000   1.0800821      298.9229       81.310056     -15656.157    
  10350000   1.0800821      294.70876      319.99517     -15657.545    
  10351000   1.0800821      299.25342     -526.64904     -15643.559    
  10352000   1.0800821      306.77501     -271.46942     -15633.756    
  10353000   1.0800821      292.36941      276.88859     -15650.591    
  10354000   1.0800821      297.16234     -471.24457     -15662.232    
  10355000   1.0800821      304.0647      -97.763957     -15578.026    
  10356000   1.0800821      290.51378      100.91648     -15669.818    
  10357000   1.0800821      293.81009     -340.22633     -15678.835    
  10358000   1.0800821      299.92842      63.26885      -15564.443    
  10359000   1.0800821      298.60446      172.9889      -15681.202    
  10360000   1.0800821      293.23278     -222.78326     -15727.91     
  10361000   1.0800821      296.94437     -830.31371     -15667.877    
  10362000   1.0800821      294.26665      263.79249     -15728.457    
  10363000   1.0800821      300.26805      478.2996      -15641.111    
  10364000   1.0800821      297.24581      420.33887     -15670.802    
  10365000   1.0800821      292.58493      69.528363     -15664.867    
  10366000   1.0800821      301.31147      503.92118     -15683.672    
  10367000   1.0800821      302.88757      870.91511     -15605.419    
  10368000   1.0800821      300.31639     -18.086611     -15603.845    
  10369000   1.0800821      293.0686      -857.66619     -15724.644    
  10370000   1.0800821      295.90254     -471.60785     -15754.531    
  10371000   1.0800821      299.62228     -546.56935     -15697.746    
  10372000   1.0800821      306.11602      250.35168     -15588.287    
  10373000   1.0800821      310.45221     -742.83972     -15516.407    
  10374000   1.0800821      292.29105     -78.829581     -15707.149    
  10375000   1.0800821      307.00976     -18.359362     -15658.011    
  10376000   1.0800821      294.01641     -479.81929     -15663.105    
  10377000   1.0800821      298.80866     -1452.6272     -15656.498    
  10378000   1.0800821      298.31774      247.79275     -15566.315    
  10379000   1.0800821      295.75752     -382.9538      -15591.373    
  10380000   1.0800821      309.99066      354.75501     -15575.496    
  10381000   1.0800821      298.02524     -129.86601     -15682.908    
  10382000   1.0800821      291.03132     -645.4125      -15655.946    
  10383000   1.0800821      299.55351     -698.61627     -15642.544    
  10384000   1.0800821      297.452       -128.7564      -15654.861    
  10385000   1.0800821      293.45552     -216.56458     -15698.113    
  10386000   1.0800821      296.76181     -161.10625     -15550.9      
  10387000   1.0800821      301.55408      360.603       -15634.019    
  10388000   1.0800821      296.75629      708.24912     -15687.471    
  10389000   1.0800821      301.21264      147.02307     -15553.773    
  10390000   1.0800821      289.79337      10.383256     -15631.739    
  10391000   1.0800821      300.71917     -184.24076     -15618.17     
  10392000   1.0800821      288.26541     -43.669829     -15716.329    
  10393000   1.0800821      297.5964       36.518515     -15634.198    
  10394000   1.0800821      303.68335     -921.31658     -15663.272    
  10395000   1.0800821      300.12712     -172.75199     -15649.841    
  10396000   1.0800821      306.0854      -297.80185     -15691.67     
  10397000   1.0800821      298.48024      611.23746     -15661.543    
  10398000   1.0800821      280.06399     -102.11145     -15730.586    
  10399000   1.0800821      304.26926      547.85291     -15503.722    
  10400000   1.0800821      296.61313      139.64255     -15630.652    
  10401000   1.0800821      299.69787     -318.32262     -15735.892    
  10402000   1.0800821      289.02475      131.64465     -15630.633    
  10403000   1.0800821      299.98195     -262.43822     -15643.694    
  10404000   1.0800821      296.98434      890.0399      -15544.01     
  10405000   1.0800821      294.30955      286.36944     -15695.382    
  10406000   1.0800821      295.26694     -657.43544     -15728.298    
  10407000   1.0800821      299.95549      279.53234     -15626.018    
  10408000   1.0800821      299.6368      -147.58385     -15574.601    
  10409000   1.0800821      293.28105     -444.13743     -15713.106    
  10410000   1.0800821      293.6937      -150.5499      -15596.441    
  10411000   1.0800821      301.60233      84.442916     -15574.762    
  10412000   1.0800821      301.05373     -433.86524     -15688.506    
  10413000   1.0800821      302.01786     -237.98815     -15648.99     
  10414000   1.0800821      309.44693      33.496593     -15593.941    
  10415000   1.0800821      292.17218     -314.58066     -15651.897    
  10416000   1.0800821      303.00301      854.39589     -15534.427    
  10417000   1.0800821      298.35403     -514.25667     -15615.748    
  10418000   1.0800821      306.07919      151.39162     -15585.062    
  10419000   1.0800821      295.51483     -471.4043      -15626.237    
  10420000   1.0800821      295.45446      454.8289      -15699.147    
  10421000   1.0800821      298.67764     -226.28872     -15628.129    
  10422000   1.0800821      300.63911      266.1086      -15694.566    
  10423000   1.0800821      293.19402     -196.88146     -15630.392    
  10424000   1.0800821      295.68515      556.39836     -15751.138    
  10425000   1.0800821      296.97151      106.22446     -15723.201    
  10426000   1.0800821      294.29463     -42.395282     -15722.979    
  10427000   1.0800821      298.68925     -355.68953     -15655.247    
  10428000   1.0800821      298.01265      594.51527     -15698.328    
  10429000   1.0800821      295.64831     -422.92312     -15696.418    
  10430000   1.0800821      295.25218      516.00998     -15657.527    
  10431000   1.0800821      299.82904     -280.67892     -15687.81     
  10432000   1.0800821      300.7278      -257.4761      -15642.86     
  10433000   1.0800821      295.53804      56.241797     -15665.124    
  10434000   1.0800821      294.74502     -363.31518     -15689.072    
  10435000   1.0800821      295.02378     -16.323911     -15666.824    
  10436000   1.0800821      300.97353     -305.55383     -15649.288    
  10437000   1.0800821      297.73864      73.272512     -15798.773    
  10438000   1.0800821      294.98526      119.47703     -15657.916    
  10439000   1.0800821      288.54974      332.50935     -15687.528    
  10440000   1.0800821      292.82054      387.36376     -15715.672    
  10441000   1.0800821      290.83358     -174.81572     -15778.611    
  10442000   1.0800821      298.04234     -350.36997     -15623.39     
  10443000   1.0800821      296.10206      402.75588     -15651.461    
  10444000   1.0800821      301.49438      98.58709      -15653.93     
  10445000   1.0800821      303.71694      186.91098     -15569.719    
  10446000   1.0800821      303.72616     -73.939781     -15610.217    
  10447000   1.0800821      301.00542      12.010038     -15589.263    
  10448000   1.0800821      300.12266      616.90605     -15641.252    
  10449000   1.0800821      297.17992      89.856782     -15606.059    
  10450000   1.0800821      307.31905     -366.24933     -15498.396    
  10451000   1.0800821      303.91417      130.83104     -15528.3      
  10452000   1.0800821      304.05261      42.713721     -15587.043    
  10453000   1.0800821      295.176        72.28534      -15660.838    
  10454000   1.0800821      304.02495      331.87741     -15628.171    
  10455000   1.0800821      288.05863     -470.42943     -15726.862    
  10456000   1.0800821      293.65204     -145.64681     -15576.159    
  10457000   1.0800821      300.42208     -119.17873     -15662.496    
  10458000   1.0800821      298.73836      909.64146     -15570.063    
  10459000   1.0800821      297.63512     -126.01596     -15669.382    
  10460000   1.0800821      290.43301     -790.86637     -15634.665    
  10461000   1.0800821      292.40915     -743.80856     -15695.96     
  10462000   1.0800821      294.9224      -273.86414     -15750.642    
  10463000   1.0800821      291.04532      362.57775     -15723.822    
  10464000   1.0800821      298.85956     -688.44755     -15694.006    
  10465000   1.0800821      297.28226      205.60929     -15703.195    
  10466000   1.0800821      289.35864      230.27921     -15754.31     
  10467000   1.0800821      291.78631      910.12841     -15702.879    
  10468000   1.0800821      305.31709      0.70766267    -15598.606    
  10469000   1.0800821      294.34211      437.89161     -15663.444    
  10470000   1.0800821      296.45786      357.21943     -15607.485    
  10471000   1.0800821      306.79468     -198.7627      -15574.541    
  10472000   1.0800821      306.5605       341.4406      -15534.543    
  10473000   1.0800821      298.8503       612.93333     -15671.34     
  10474000   1.0800821      299.74217      336.85633     -15637.178    
  10475000   1.0800821      308.9819      -440.83774     -15591.8      
  10476000   1.0800821      296.81842     -35.726662     -15697.892    
  10477000   1.0800821      300.06748      379.04088     -15658.814    
  10478000   1.0800821      297.40739     -449.4163      -15658.289    
  10479000   1.0800821      289.88498      563.07269     -15673.557    
  10480000   1.0800821      296.76141     -773.94001     -15690.995    
  10481000   1.0800821      294.1638      -565.39716     -15630.656    
  10482000   1.0800821      291.78791      365.42297     -15720.387    
  10483000   1.0800821      301.02548     -77.256528     -15714.602    
  10484000   1.0800821      298.54879     -453.08811     -15626.998    
  10485000   1.0800821      293.11249     -133.8724      -15679.523    
  10486000   1.0800821      292.62085      780.96101     -15672.617    
  10487000   1.0800821      300.64764     -86.161403     -15686.098    
  10488000   1.0800821      302.14802     -18.376679     -15628.651    
  10489000   1.0800821      302.98076     -407.23968     -15620.502    
  10490000   1.0800821      300.66482     -1325.6148     -15678.289    
  10491000   1.0800821      298.42128     -417.1025      -15671.747    
  10492000   1.0800821      295.84909      291.95176     -15666.708    
  10493000   1.0800821      297.1015       394.13707     -15742.794    
  10494000   1.0800821      293.16365     -397.61674     -15698.315    
  10495000   1.0800821      291.87491      435.12293     -15776.81     
  10496000   1.0800821      294.85494      499.45632     -15678.268    
  10497000   1.0800821      302.98675     -385.64577     -15695.583    
  10498000   1.0800821      292.96991      161.30254     -15688.172    
  10499000   1.0800821      294.37683      38.308306     -15583.536    
  10500000   1.0800821      287.73677      603.1454      -15716.425    
  10501000   1.0800821      308.6961       679.72387     -15519        
  10502000   1.0800821      308.77531     -96.967005     -15528.697    
  10503000   1.0800821      297.59809      293.42899     -15555.082    
  10504000   1.0800821      296.21587      85.646644     -15652.595    
  10505000   1.0800821      294.22962     -232.78167     -15588.037    
  10506000   1.0800821      290.35086     -323.97424     -15636.714    
  10507000   1.0800821      304.46544     -260.98273     -15552.426    
  10508000   1.0800821      299.61784      181.39144     -15683.419    
  10509000   1.0800821      303.77255      324.13034     -15619.674    
  10510000   1.0800821      298.70959     -411.26793     -15740.568    
  10511000   1.0800821      297.07918     -553.5378      -15679.116    
  10512000   1.0800821      293.69296     -121.60204     -15734.587    
  10513000   1.0800821      300.33604      602.89919     -15651.817    
  10514000   1.0800821      295.12189     -583.016       -15654.09     
  10515000   1.0800821      297.82952     -137.03077     -15675.428    
  10516000   1.0800821      287.71276     -64.752127     -15741.98     
  10517000   1.0800821      294.37342      367.60526     -15653.849    
  10518000   1.0800821      302.93476      166.2291      -15607.647    
  10519000   1.0800821      300.54669     -78.868043     -15672.784    
  10520000   1.0800821      293.04347      633.78646     -15706.62     
  10521000   1.0800821      299.33386      606.69219     -15642.88     
  10522000   1.0800821      292.68245     -286.94115     -15749.199    
  10523000   1.0800821      303.5028      -355.51098     -15655.171    
  10524000   1.0800821      309.20295     -189.18869     -15595.908    
  10525000   1.0800821      298.20235      26.649188     -15652.59     
  10526000   1.0800821      300.7186       246.09386     -15609.081    
  10527000   1.0800821      291.22906     -350.13006     -15716.367    
  10528000   1.0800821      290.69244     -59.001739     -15669.609    
  10529000   1.0800821      290.70039     -464.04482     -15690.702    
  10530000   1.0800821      308.64635     -60.802078     -15723.845    
  10531000   1.0800821      296.27792      694.35263     -15731.737    
  10532000   1.0800821      292.97879      56.998124     -15784.084    
  10533000   1.0800821      291.84631     -81.770164     -15741.015    
  10534000   1.0800821      307.06944     -413.69158     -15717.241    
  10535000   1.0800821      299.98349      66.459712     -15579.295    
  10536000   1.0800821      293.20393     -154.81961     -15667.084    
  10537000   1.0800821      296.80376     -322.4561      -15593.993    
  10538000   1.0800821      297.45352      65.163644     -15546.593    
  10539000   1.0800821      297.72989     -861.56046     -15676.395    
  10540000   1.0800821      296.93625     -196.26993     -15736.459    
  10541000   1.0800821      304.8193       105.36818     -15618.985    
  10542000   1.0800821      294.59519      36.06525      -15683.334    
  10543000   1.0800821      291.10697     -725.3975      -15690.97     
  10544000   1.0800821      292.94473     -137.64003     -15658.24     
  10545000   1.0800821      291.21908     -129.38369     -15633.973    
  10546000   1.0800821      307.25515      686.71543     -15532.682    
  10547000   1.0800821      296.80908      274.55189     -15610.703    
  10548000   1.0800821      293.12549     -613.84376     -15647.492    
  10549000   1.0800821      293.50663     -56.419844     -15601.689    
  10550000   1.0800821      297.98008     -377.94342     -15771.818    
Loop time of 1477.91 on 24 procs for 500000 steps with 3162 atoms

Performance: 29.230 ns/day, 0.821 hours/ns, 338.315 timesteps/s
99.4% CPU use with 24 MPI tasks x no OpenMP threads

MPI task timing breakdown:
Section |  min time  |  avg time  |  max time  |%varavg| %total
---------------------------------------------------------------
Pair    | 559.98     | 609.31     | 668.49     | 102.1 | 41.23
Bond    | 2.2477     | 2.4872     | 2.7242     |   7.0 |  0.17
Kspace  | 329.67     | 386.67     | 435.68     | 129.1 | 26.16
Neigh   | 94.373     | 94.824     | 95.33      |   2.4 |  6.42
Comm    | 71.132     | 74.68      | 81.38      |  38.1 |  5.05
Output  | 31.36      | 31.363     | 31.37      |   0.0 |  2.12
Modify  | 267.59     | 269.25     | 270.79     |   4.4 | 18.22
Other   |            | 9.324      |            |       |  0.63

Nlocal:         131.75 ave         149 max         122 min
Histogram: 2 3 7 3 4 3 0 1 0 1
Nghost:        4569.21 ave        4591 max        4541 min
Histogram: 2 0 2 2 3 3 5 1 4 2
Neighs:        52878.6 ave       59798 max       48028 min
Histogram: 4 1 3 6 3 1 1 3 1 1

Total # of neighbors = 1269086
Ave neighs/atom = 401.35547
Ave special neighs/atom = 2.0341556
Neighbor list builds = 59806
Dangerous builds = 0
