LAMMPS (23 Jun 2022 - Update 1)
####################################################
# Preprocessing Li2SO4 in water
#################### SETTING UP ####################
units real
dimension 3
newton on
boundary p p p
atom_style full

#################### VARIABLES ####################
variable Temp equal 323.15    # Temperature in K
variable Pres equal 1.0       # Pressure in atm.

variable RandomSeed equal 94 # The random seed for velocity
variable tstep equal 2.0      # 1fs
variable Ninptpre equal 10000 # Pre-initialize the NPT ensemble (very small timesteps)
variable Ninpt equal 10000000  # Initialize the NPT ensemble
variable Npnpt equal 10000000  # Production in the NPT ensemble (volume)
variable Ninvtpre equal 10000 # Pre-initialize the NVT ensemble (very small timesteps)
variable Ninvt equal 500000   # Initialize the NVT ensemble
variable Nrun equal 50000     # production in the NVT ensemble (Transport properties) 1ns
variable Nf equal 1000         # Nfreq (fix ave/time and thermo)
variable Ne equal  1         # Nevery (fix ave/time)
variable Nr equal ${Nf}/${Ne} # Nrepeat (fix ave/time)
variable Nr equal 1000/${Ne} 
variable Nr equal 1000/1 
variable NBR equal ${Npnpt}/100 # Block averaging for density (NPT)
variable NBR equal 10000000/100 
variable Nd equal ${Nrun}/10 # Frequency of outputting positions of atoms in the NVT ensemble
variable Nd equal 50000/10 

variable nb equal 10          # Number of blocks (fix ordern)
variable nbe equal 20         # Number of block elements (fix ordern)
variable Nvisc equal 5        # Nevery for viscosity (fix ordern: sample data at (Nvisc*2))
variable Ncond equal 5        # Nevery for Tconductivity (fix ordern: sample data at (Ncond*2))
variable Ndiff equal 1000     # Nevery for diffusivity (fix ordern: sample data at (Ndiff))
variable Nwrit equal 100000   # Nwrite for transport properties (fix ordern: write every (Nwrit))

variable Nrdfe equal 1000     # Nevery for RDF (fix ave/time)
variable Nrdfw equal 1000     # Nwrite for RDF (compute rdf/ext: write every (Nrdfw*Nrdfe))
variable binnum equal 2000    # Number of bins for RDF

#################### ATOM DEFINITION and FORCEFIELD ####################
read_data ./data.lmp                     # read the positions
Reading data file ...
  orthogonal box = (0 0 0) to (31.689281 31.689281 31.689281)
  2 by 4 by 4 MPI processor grid
  reading atoms ...
  3162 atoms
  scanning bonds ...
  4 = max bonds/atom
  scanning angles ...
  6 = max angles/atom
  reading bonds ...
  2108 bonds
  reading angles ...
  1108 angles
Finding 1-2 1-3 1-4 neighbors ...
  special bond factors lj:    0        0        0       
  special bond factors coul:  0        0        0       
     4 = max # of 1-2 neighbors
     3 = max # of 1-3 neighbors
     3 = max # of 1-4 neighbors
     4 = max # of special neighbors
  special bonds CPU = 0.001 seconds
  read_data CPU = 0.018 seconds
include ./forcefield.data                # read the force field
#--------INTERMOLECULAR POTENTIAL -------------------#
# ---------------Developed for Li2SO4 in water (tip4p/2005) system-----#

mass 1 15.9994 # Ow
mass 2 1.008 # Hw
mass 3 6.891  # Li  -0.01, which went to ghost
mass 4 0.05 # m ghost of lithium
mass 5 0.1 # S  Center site without weight
mass 6 23.99065 # Os (added sulfur weight)


pair_style lj/cut/tip4p/long 1 2 1 1 0.1546 10.0
kspace_style pppm/tip4p 1.0e-5
pair_modify mix arithmetic tail yes # ATC and Lorentz-Berthelot combining rules

#-----------------Combinations----------------------------
# atomtype atomtype epsilon sigma

pair_coeff 1 1 0.185200 3.1589     # Ow-Ow
pair_coeff 1 2 0.000000 0.0000     # Ow-Hw
pair_coeff 1 3 0.167459 2.12       # Ow-Li
pair_coeff 1 4 0.000000 0.0000     # Ow-m
pair_coeff 1 5 0.215246 3.35445    # Ow-S  COMPUTE BY HAND LB mix
pair_coeff 1 6 0.150335 3.40445    # Ow-Os

pair_coeff 2 2 0.000000 0.0000     # Hw-Hw
pair_coeff 2 3 0.000000 0.0000     # Hw-Li
pair_coeff 2 4 0.000000 0.0000     # Hw-m
pair_coeff 2 5 0.000000 0.0000     # Hw-S
pair_coeff 2 6 0.000000 0.0000     # Hw-Os

pair_coeff 3 3 0.103989 1.4397     # Li-Li
pair_coeff 3 4 0.000000 0.0000     # Li-m
pair_coeff 3 5 0.161291 2.49485    # Li-S   COMPUTE BY HAND LB mix
pair_coeff 3 6 0.192067 2.844850   # Li-Os

pair_coeff 4 4 0.000000 0.0000     # m-m
pair_coeff 4 5 0.000000 0.0000     # m-S
pair_coeff 4 6 0.000000 0.0000     # m-Os

pair_coeff 5 5 0.250167 3.5500     # S-S
pair_coeff 5 6 0.223762 3.6000     # S-Os  CHECK BY HAND LB mix

pair_coeff 6 6 0.200143 3.6500     # Os-Os

bond_style  harmonic
bond_coeff 1 2000 0.9572           # Ow-Hw
bond_coeff 2 1000 0.5		   # Li-m
bond_coeff 3 1000 1.490		   # S-Os

angle_style harmonic
angle_coeff 1 200 104.52           # H-Ow-H
angle_coeff 2 200 109.5           # Os-S-Os

#dihedral_style none
#improper_style none

set type 1 charge -1.1128          # O
Setting atom values ...
  1000 settings made for charge
set type 2 charge +0.5564          # OH
Setting atom values ...
  2000 settings made for charge
set type 3 charge +0.8500          # Li
Setting atom values ...
  36 settings made for charge
set type 4 charge 0		   # m
Setting atom values ...
  36 settings made for charge
set type 5 charge +0.9000          # S
Setting atom values ...
  18 settings made for charge
set type 6 charge -0.6500          # Os
Setting atom values ...
  72 settings made for charge


#################### INITIALIZATION ####################
# groups for the central atoms of water (O)

group wat type 1		# O water
1000 atoms in group wat
group Li type 3			# Lithium atom
36 atoms in group Li
group S type 5			# S sulfite group centre
18 atoms in group S

# neigbor lists
neighbor 2.0 bin
neigh_modify every 1 delay 0 check yes

# velocity-Verlet integrator
run_style verlet

# initializing velocities
velocity all create ${Temp} ${RandomSeed}
velocity all create 323.15 ${RandomSeed}
velocity all create 323.15 94

# rate of writing thermal properties to the log file
thermo_style custom step density temp press etotal
thermo_modify flush yes
thermo ${Nf}
thermo 1000

#################### 2) Initialize the NPT ensemble ####################
######### Go to the correct temperature now ant initiate that ##########
fix integrate all rigid/npt/small molecule temp ${Temp} ${Temp} 10.0 iso ${Pres} ${Pres} 100.0
fix integrate all rigid/npt/small molecule temp 323.15 ${Temp} 10.0 iso ${Pres} ${Pres} 100.0
fix integrate all rigid/npt/small molecule temp 323.15 323.15 10.0 iso ${Pres} ${Pres} 100.0
fix integrate all rigid/npt/small molecule temp 323.15 323.15 10.0 iso 1 ${Pres} 100.0
fix integrate all rigid/npt/small molecule temp 323.15 323.15 10.0 iso 1 1 100.0
  create bodies CPU = 0.001 seconds
  1054 rigid bodies with 3162 atoms
  1.4900082 = max distance from body owner to body atom

# add dump trajectory

# Initializing the whole system with very small timesteps in the NPT ensemble
timestep 0.001
run ${Ninptpre}
run 10000
PPPM initialization ...
  extracting TIP4P info from pair style
  using 12-bit tables for long-range coulomb (../kspace.cpp:342)
  G vector (1/distance) = 0.31119582
  grid = 30 30 30
  stencil order = 5
  estimated absolute RMS force accuracy = 0.0035544154
  estimated relative force accuracy = 1.0704016e-05
  using double precision KISS FFT
  3d grid and FFT values/proc = 4950 960
Generated 0 of 15 mixed pair_coeff terms from arithmetic mixing rule
Neighbor list info ...
  update every 1 steps, delay 0 steps, check yes
  max neighbors/atom: 2000, page size: 100000
  master list distance cutoff = 12.3092
  ghost atom cutoff = 12.3092
  binsize = 6.1546, bins = 6 6 6
  1 neighbor lists, perpetual/occasional/extra = 1 0 0
  (1) pair lj/cut/tip4p/long, perpetual
      attributes: half, newton on
      pair build: half/bin/newton
      stencil: half/bin/3d
      bin: standard
Per MPI rank memory allocation (min/avg/max) = 15.41 | 15.45 | 15.48 Mbytes
   Step        Density          Temp          Press          TotEng    
         0   1.0433267      319.78456      3535243.1      6082.2921    
      1000   1.0425994      338.49295      73206.522      6058.4424    
      2000   1.0405606      393.50412      70623.797      5990.0998    
      3000   1.0372626      480.61664      66155.223      5871.0577    
      4000   1.0327955      591.78096      59649.562      5685.1974    
      5000   1.0272895      718.47058      51576.609      5425.5838    
      6000   1.0209047      855.21436      43985.652      5109.9055    
      7000   1.0137989      992.71801      37327.408      4734.3175    
      8000   1.0061211      1123.6589      29758.193      4307.3996    
      9000   0.99803294     1239.4116      22756.29       3826.0275    
     10000   0.98968836     1335.392       16913.825      3304.9326    
Loop time of 26.8324 on 32 procs for 10000 steps with 3162 atoms

Performance: 0.032 ns/day, 745.344 hours/ns, 372.684 timesteps/s
99.6% CPU use with 32 MPI tasks x no OpenMP threads

MPI task timing breakdown:
Section |  min time  |  avg time  |  max time  |%varavg| %total
---------------------------------------------------------------
Pair    | 9.1489     | 10.861     | 13         |  36.0 | 40.48
Bond    | 0.032967   | 0.039598   | 0.047129   |   1.8 |  0.15
Kspace  | 5.2918     | 7.4647     | 9.3544     |  44.3 | 27.82
Neigh   | 0.0021152  | 0.0023063  | 0.0025833  |   0.3 |  0.01
Comm    | 1.3917     | 1.629      | 1.8025     |   7.6 |  6.07
Output  | 0.00058058 | 0.00060443 | 0.00084271 |   0.0 |  0.00
Modify  | 6.1539     | 6.4792     | 6.6917     |   6.1 | 24.15
Other   |            | 0.3556     |            |       |  1.33

Nlocal:        98.8125 ave         114 max          83 min
Histogram: 1 1 6 4 4 4 5 2 3 2
Nghost:        4080.66 ave        4122 max        4050 min
Histogram: 6 2 2 3 6 4 4 3 1 1
Neighs:        36654.2 ave       43853 max       29774 min
Histogram: 1 4 4 5 4 3 4 2 2 3

Total # of neighbors = 1172935
Ave neighs/atom = 370.94719
Ave special neighs/atom = 2.0341556
Neighbor list builds = 2
Dangerous builds = 0
timestep 0.01
run ${Ninptpre}
run 10000
PPPM initialization ...
  extracting TIP4P info from pair style
  using 12-bit tables for long-range coulomb (../kspace.cpp:342)
  G vector (1/distance) = 0.30992836
  grid = 30 30 30
  stencil order = 5
  estimated absolute RMS force accuracy = 0.003745651
  estimated relative force accuracy = 1.1279917e-05
  using double precision KISS FFT
  3d grid and FFT values/proc = 4950 960
Generated 0 of 15 mixed pair_coeff terms from arithmetic mixing rule
Per MPI rank memory allocation (min/avg/max) = 15.41 | 15.45 | 15.48 Mbytes
   Step        Density          Temp          Press          TotEng    
     10000   0.98968836     1335.392       6936.6996      3304.9286    
     11000   0.91372169     1247.7636     -8625.0601     -1808.8781    
     12000   0.86934235     915.91855     -10624.663     -4573.4888    
     13000   0.85049735     768.44225     -10096.249     -6374.3732    
     14000   0.85088417     640.63052     -8602.8791     -7669.4239    
     15000   0.86628706     583.83313     -7230.2263     -8670.6931    
     16000   0.89387283     543.88749     -5811.7417     -9555.8396    
     17000   0.93012517     510.52801     -2762.598      -10275.605    
     18000   0.96865175     497.10428     -594.51158     -10865.718    
     19000   1.0047843      479.1642       1037.3325     -11378.774    
     20000   1.0361727      465.80345      1968.6828     -11835.605    
Loop time of 24.7131 on 32 procs for 10000 steps with 3162 atoms

Performance: 0.350 ns/day, 68.647 hours/ns, 404.644 timesteps/s
99.6% CPU use with 32 MPI tasks x no OpenMP threads

MPI task timing breakdown:
Section |  min time  |  avg time  |  max time  |%varavg| %total
---------------------------------------------------------------
Pair    | 8.2698     | 9.736      | 11.65      |  32.7 | 39.40
Bond    | 0.034395   | 0.039304   | 0.045384   |   1.4 |  0.16
Kspace  | 5.0865     | 7.1108     | 8.6526     |  39.1 | 28.77
Neigh   | 0.013889   | 0.014703   | 0.016241   |   0.5 |  0.06
Comm    | 1.2797     | 1.5108     | 1.6499     |   7.4 |  6.11
Output  | 0.00041858 | 0.00043044 | 0.00065138 |   0.0 |  0.00
Modify  | 5.6252     | 5.959      | 6.1815     |   6.7 | 24.11
Other   |            | 0.3421     |            |       |  1.38

Nlocal:        98.8125 ave         112 max          85 min
Histogram: 1 0 7 3 4 6 4 4 1 2
Nghost:        4137.16 ave        4168 max        4111 min
Histogram: 3 3 2 5 5 5 3 4 1 1
Neighs:        37457.1 ave       43754 max       31133 min
Histogram: 1 3 4 5 5 3 4 2 2 3

Total # of neighbors = 1198627
Ave neighs/atom = 379.07242
Ave special neighs/atom = 2.0341556
Neighbor list builds = 14
Dangerous builds = 0
timestep 0.1
run ${Ninptpre}
run 10000
PPPM initialization ...
  extracting TIP4P info from pair style
  using 12-bit tables for long-range coulomb (../kspace.cpp:342)
  G vector (1/distance) = 0.31103099
  grid = 30 30 30
  stencil order = 5
  estimated absolute RMS force accuracy = 0.0035787659
  estimated relative force accuracy = 1.0777347e-05
  using double precision KISS FFT
  3d grid and FFT values/proc = 4950 960
Generated 0 of 15 mixed pair_coeff terms from arithmetic mixing rule
Per MPI rank memory allocation (min/avg/max) = 15.41 | 15.45 | 15.48 Mbytes
   Step        Density          Temp          Press          TotEng    
     20000   1.0361727      465.80345      1854.1204     -11835.602    
     21000   1.1375175      341.69801      706.5517      -14899.46     
     22000   1.1427385      321.41978     -238.27198     -15721.871    
     23000   1.1188569      316.33251     -190.2131      -15866.296    
     24000   1.1102853      326.53311     -753.6813      -15987.913    
     25000   1.1111768      330.21686      74.698355     -16015.546    
     26000   1.0912141      328.30088     -552.47004     -15963.906    
     27000   1.0876245      326.92575     -551.35772     -16020.09     
     28000   1.093026       317.08937      22.293947     -16183.015    
     29000   1.0951249      316.52199      783.96962     -16189.6      
     30000   1.0776971      324.6929      -334.85684     -16095.185    
Loop time of 27.8107 on 32 procs for 10000 steps with 3162 atoms

Performance: 3.107 ns/day, 7.725 hours/ns, 359.573 timesteps/s
99.6% CPU use with 32 MPI tasks x no OpenMP threads

MPI task timing breakdown:
Section |  min time  |  avg time  |  max time  |%varavg| %total
---------------------------------------------------------------
Pair    | 10.229     | 12.02      | 13.057     |  17.2 | 43.22
Bond    | 0.036286   | 0.039963   | 0.045752   |   1.1 |  0.14
Kspace  | 5.7633     | 6.7947     | 8.6403     |  23.0 | 24.43
Neigh   | 0.099844   | 0.10592    | 0.11668    |   1.4 |  0.38
Comm    | 1.4674     | 1.7093     | 1.8596     |   7.2 |  6.15
Output  | 0.00036422 | 0.00037644 | 0.00061599 |   0.0 |  0.00
Modify  | 6.4872     | 6.7922     | 7.0043     |   6.0 | 24.42
Other   |            | 0.3479     |            |       |  1.25

Nlocal:        98.8125 ave         109 max          92 min
Histogram: 4 4 5 3 5 4 4 0 2 1
Nghost:        4247.72 ave        4287 max        4212 min
Histogram: 1 5 5 3 2 4 6 3 1 2
Neighs:        39594.2 ave       44846 max       34168 min
Histogram: 1 0 6 5 3 7 5 2 1 2

Total # of neighbors = 1267015
Ave neighs/atom = 400.70051
Ave special neighs/atom = 2.0341556
Neighbor list builds = 90
Dangerous builds = 0
timestep 0.2
run ${Ninptpre}
run 10000
PPPM initialization ...
  extracting TIP4P info from pair style
  using 12-bit tables for long-range coulomb (../kspace.cpp:342)
  G vector (1/distance) = 0.31197055
  grid = 30 30 30
  stencil order = 5
  estimated absolute RMS force accuracy = 0.0034419826
  estimated relative force accuracy = 1.0365428e-05
  using double precision KISS FFT
  3d grid and FFT values/proc = 4950 960
Generated 0 of 15 mixed pair_coeff terms from arithmetic mixing rule
Per MPI rank memory allocation (min/avg/max) = 15.41 | 15.45 | 15.48 Mbytes
   Step        Density          Temp          Press          TotEng    
     30000   1.0776971      324.6929       1515.1998     -16095.185    
     31000   1.0873757      314.71386      294.91899     -16274.633    
     32000   1.0805931      331.49429     -668.18878     -16189.368    
     33000   1.0818859      327.04121      391.98568     -16139.479    
     34000   1.0819819      317.86154      333.85536     -16231.855    
     35000   1.0857435      317.35133      692.01201     -16210.399    
     36000   1.0798552      317.4187       419.24548     -16270.223    
     37000   1.0670312      328.02402     -473.41398     -16155.297    
     38000   1.0673793      326.15086      876.71756     -16168.286    
     39000   1.0711945      327.01834     -293.7138      -16210.643    
     40000   1.0898745      316.2779       1109.9521     -16330.72     
Loop time of 27.721 on 32 procs for 10000 steps with 3162 atoms

Performance: 6.234 ns/day, 3.850 hours/ns, 360.738 timesteps/s
99.6% CPU use with 32 MPI tasks x no OpenMP threads

MPI task timing breakdown:
Section |  min time  |  avg time  |  max time  |%varavg| %total
---------------------------------------------------------------
Pair    | 10.897     | 11.851     | 12.852     |  16.6 | 42.75
Bond    | 0.034788   | 0.039925   | 0.045256   |   1.2 |  0.14
Kspace  | 5.7888     | 6.812      | 7.7439     |  21.4 | 24.57
Neigh   | 0.22167    | 0.23462    | 0.2589     |   2.1 |  0.85
Comm    | 1.4384     | 1.686      | 1.8274     |   7.4 |  6.08
Output  | 0.00033493 | 0.00036177 | 0.00059554 |   0.0 |  0.00
Modify  | 6.4572     | 6.7567     | 6.9711     |   5.9 | 24.37
Other   |            | 0.3405     |            |       |  1.23

Nlocal:        98.8125 ave         108 max          88 min
Histogram: 4 1 2 2 1 4 7 6 1 4
Nghost:        4307.88 ave        4374 max        4257 min
Histogram: 1 4 4 7 5 3 2 5 0 1
Neighs:        39974.6 ave       45755 max       33879 min
Histogram: 2 1 3 6 4 4 5 1 3 3

Total # of neighbors = 1279187
Ave neighs/atom = 404.54997
Ave special neighs/atom = 2.0341556
Neighbor list builds = 204
Dangerous builds = 0
timestep 0.5
run ${Ninptpre}
run 10000
PPPM initialization ...
  extracting TIP4P info from pair style
  using 12-bit tables for long-range coulomb (../kspace.cpp:342)
  G vector (1/distance) = 0.31223845
  grid = 30 30 30
  stencil order = 5
  estimated absolute RMS force accuracy = 0.003403868
  estimated relative force accuracy = 1.0250647e-05
  using double precision KISS FFT
  3d grid and FFT values/proc = 4950 960
Generated 0 of 15 mixed pair_coeff terms from arithmetic mixing rule
Per MPI rank memory allocation (min/avg/max) = 15.41 | 15.45 | 15.48 Mbytes
   Step        Density          Temp          Press          TotEng    
     40000   1.0898745      316.2779       1999.9084     -16330.719    
     41000   1.0720103      329.10843      123.23509     -16193.641    
     42000   1.0664204      319.71345     -816.26764     -16291.45     
     43000   1.0784263      320.87984      419.58759     -16300.599    
     44000   1.0795754      322.65862      630.39027     -16346.634    
     45000   1.0687615      323.74093      621.25717     -16118.571    
     46000   1.0848751      324.85277      815.88959     -16266.232    
     47000   1.0694336      332.26518      468.70277     -16182.044    
     48000   1.0732701      323.57579      182.54392     -16194.142    
     49000   1.0798306      327.43091      388.73999     -16182.04     
     50000   1.0848012      324.7291       166.31666     -16248.487    
Loop time of 28.3435 on 32 procs for 10000 steps with 3162 atoms

Performance: 15.242 ns/day, 1.575 hours/ns, 352.815 timesteps/s
99.6% CPU use with 32 MPI tasks x no OpenMP threads

MPI task timing breakdown:
Section |  min time  |  avg time  |  max time  |%varavg| %total
---------------------------------------------------------------
Pair    | 10.261     | 11.884     | 12.841     |  16.8 | 41.93
Bond    | 0.036248   | 0.03993    | 0.044293   |   1.1 |  0.14
Kspace  | 5.8133     | 6.8002     | 8.6115     |  22.6 | 23.99
Neigh   | 0.58077    | 0.61392    | 0.67695    |   3.4 |  2.17
Comm    | 1.4962     | 1.7468     | 1.8804     |   7.4 |  6.16
Output  | 0.00036219 | 0.00037459 | 0.00063456 |   0.0 |  0.00
Modify  | 6.6168     | 6.9114     | 7.1174     |   5.8 | 24.38
Other   |            | 0.3464     |            |       |  1.22

Nlocal:        98.8125 ave         109 max          85 min
Histogram: 1 0 3 2 7 2 4 8 3 2
Nghost:        4278.69 ave        4309 max        4245 min
Histogram: 1 2 3 4 4 5 8 1 0 4
Neighs:        39792.7 ave       45178 max       33049 min
Histogram: 1 1 4 2 5 2 8 3 5 1

Total # of neighbors = 1273365
Ave neighs/atom = 402.70873
Ave special neighs/atom = 2.0341556
Neighbor list builds = 532
Dangerous builds = 0
reset_timestep 0

# continuing the initialization with the final value of timestep
unfix integrate
fix integrate all rigid/npt/small molecule temp ${Temp} ${Temp} 100.0 iso ${Pres} ${Pres} 1000.0
fix integrate all rigid/npt/small molecule temp 323.15 ${Temp} 100.0 iso ${Pres} ${Pres} 1000.0
fix integrate all rigid/npt/small molecule temp 323.15 323.15 100.0 iso ${Pres} ${Pres} 1000.0
fix integrate all rigid/npt/small molecule temp 323.15 323.15 100.0 iso 1 ${Pres} 1000.0
fix integrate all rigid/npt/small molecule temp 323.15 323.15 100.0 iso 1 1 1000.0
  create bodies CPU = 0.000 seconds
  1054 rigid bodies with 3162 atoms
  1.4901041 = max distance from body owner to body atom

timestep ${tstep}
timestep 2
run ${Ninpt}
run 10000000
PPPM initialization ...
  extracting TIP4P info from pair style
  using 12-bit tables for long-range coulomb (../kspace.cpp:342)
  G vector (1/distance) = 0.31212725
  grid = 30 30 30
  stencil order = 5
  estimated absolute RMS force accuracy = 0.0034196417
  estimated relative force accuracy = 1.029815e-05
  using double precision KISS FFT
  3d grid and FFT values/proc = 4950 960
Generated 0 of 15 mixed pair_coeff terms from arithmetic mixing rule
Per MPI rank memory allocation (min/avg/max) = 15.41 | 15.45 | 15.48 Mbytes
   Step        Density          Temp          Press          TotEng    
         0   1.0848012      324.7291       12.964076     -16248.487    
      1000   1.0570113      313.66939     -15.555132     -16423.913    
      2000   1.0661335      324.35404     -87.60301      -16297.913    
      3000   1.0797513      321.90474      152.82868     -16314.789    
      4000   1.0702298      323.73501     -227.29191     -16198.153    
      5000   1.0790239      335.04462      138.85916     -16232.729    
      6000   1.0749767      321.1725      -258.10998     -16356.499    
      7000   1.0704559      317.42709      320.70699     -16253.782    
      8000   1.080395       324.10209      398.64983     -16240.368    
      9000   1.0718462      325.72396     -346.82979     -16208.448    
     10000   1.0660771      312.32477     -286.58027     -16327.932    
     11000   1.0600701      315.68258     -1160.5089     -16379.863    
     12000   1.0683863      322.61501      247.56152     -16305.439    
     13000   1.0751874      315.08777      175.14747     -16256.405    
     14000   1.0531894      325.08268     -119.78686     -16198.844    
     15000   1.0783615      319.72685     -98.735477     -16302.56     
     16000   1.0613848      319.8765      -209.6882      -16291.121    
     17000   1.0729692      320.99795     -174.09057     -16312.407    
     18000   1.0740121      313.60971     -214.61862     -16451.526    
     19000   1.0723539      327.77757     -556.37858     -16213.342    
     20000   1.065956       313.31703     -423.33774     -16309.813    
     21000   1.0718169      309.97352      530.46205     -16363.197    
     22000   1.0650971      330.50667      326.48926     -16229.544    
     23000   1.0711029      327.62837     -241.93838     -16349.026    
     24000   1.0667707      322.22425     -341.99457     -16315.287    
     25000   1.0643495      325.95343     -666.33996     -16271.719    
     26000   1.0635993      313.62566     -82.61025      -16428.683    
     27000   1.0874768      317.48654     -147.35488     -16315.248    
     28000   1.0818756      318.40074      845.11137     -16247.013    
     29000   1.0587121      325.16014      654.00869     -16235.605    
     30000   1.0743992      316.44174      271.01392     -16431.269    
     31000   1.0755966      323.34858     -86.601103     -16298.572    
     32000   1.0779924      329.58567      1218.0704     -16226.657    
     33000   1.0709667      323.02195      97.946417     -16303.27     
     34000   1.0723102      329.51735      41.850291     -16286.609    
     35000   1.0752691      319.02959      350.91696     -16351.662    
     36000   1.0502723      314.9431      -1127.6839     -16363.588    
     37000   1.0639389      321.78192      210.19783     -16353.182    
     38000   1.0742475      330.46559      325.26837     -16251.016    
     39000   1.0750977      323.08605      351.63056     -16307.678    
     40000   1.070089       324.10274     -820.16375     -16288.382    
     41000   1.0767353      316.19001     -83.29094      -16310.569    
     42000   1.0705258      322.47403     -970.54966     -16247.838    
     43000   1.0751166      324.09863      513.5896      -16226.23     
     44000   1.0749455      329.58542     -52.94692      -16293.091    
     45000   1.0679732      321.38225      254.81283     -16260.447    
     46000   1.0664632      316.19021     -218.65512     -16328.63     
     47000   1.0751876      327.7449      -582.45223     -16289.092    
     48000   1.0659953      305.62076      11.539742     -16348.18     
     49000   1.0717011      320.19367     -734.49047     -16255.771    
     50000   1.0634115      306.78387     -552.57956     -16518.325    
     51000   1.0787891      315.1348       88.652598     -16401.492    
     52000   1.0735015      319.117        227.1314      -16297.728    
     53000   1.0827427      319.19625      582.70249     -16366.312    
     54000   1.0695173      313.01397      1037.1966     -16452.089    
     55000   1.0796669      319.19574      223.39651     -16380.405    
     56000   1.0717391      317.32084     -24.805587     -16411.269    
     57000   1.0848002      321.88567      1229.3364     -16324.156    
     58000   1.0736001      324.9125       273.77061     -16215.237    
     59000   1.0670266      326.15688     -143.58956     -16257.966    
     60000   1.0715611      322.42408     -36.401124     -16330.046    
     61000   1.0730335      326.33933     -980.74433     -16284.352    
     62000   1.0684602      327.37594      538.85569     -16252.459    
     63000   1.0813762      316.99212      417.46801     -16397.48     
     64000   1.0635827      318.41796     -245.41691     -16297.322    
     65000   1.0596202      315.45932     -588.70661     -16274.729    
     66000   1.0736541      323.30912      72.284542     -16274.641    
     67000   1.0752536      311.34097      819.05614     -16326.251    
     68000   1.0657579      315.49015     -45.766139     -16367.616    
     69000   1.0764646      318.77848     -617.51599     -16391.166    
     70000   1.0754235      320.24853      458.58683     -16227.381    
     71000   1.0721419      317.32031     -381.0347      -16389.157    
     72000   1.0642671      326.39786      73.640239     -16222.021    
     73000   1.0510458      324.04263      126.56409     -16192.924    
     74000   1.0776174      318.55333     -273.82        -16371.987    
     75000   1.0717275      317.30423      491.91514     -16306.966    
     76000   1.0777423      313.39629      860.85777     -16385.023    
     77000   1.0803022      310.05978     -191.55274     -16481.435    
     78000   1.0743088      325.95576      422.49765     -16322.479    
     79000   1.0742319      330.06289      119.35279     -16239.15     
     80000   1.0582011      317.24133     -256.58205     -16324.051    
     81000   1.0604516      327.99468      48.793487     -16205.015    
     82000   1.0616371      309.49393     -327.93836     -16326.843    
     83000   1.0692178      323.59835      718.9512      -16261.979    
     84000   1.0840758      325.64797      284.1622      -16308.786    
     85000   1.0784767      312.83673      400.96587     -16359.828    
     86000   1.0574058      317.10302      198.97027     -16381.053    
     87000   1.0840966      322.46617      275.05339     -16340.039    
     88000   1.0668742      322.46315      467.39489     -16198.088    
     89000   1.0695853      332.87932     -252.86304     -16288.633    
     90000   1.0653407      324.04411      310.86775     -16302.328    
     91000   1.0641572      328.68689      112.53793     -16176.052    
     92000   1.065088       320.28501     -280.06016     -16279.285    
     93000   1.0606407      326.13695      1246.8393     -16203.833    
     94000   1.0757665      319.38425      349.80325     -16340.433    
     95000   1.0784397      321.41814     -83.467259     -16403.109    
     96000   1.0561988      320.22137     -24.582051     -16270.226    
     97000   1.0670219      323.72987     -394.84695     -16308.251    
     98000   1.0771968      311.14986      380.90387     -16389.555    
     99000   1.0593121      328.14223     -88.498487     -16248.445    
    100000   1.0735848      326.30876     -256.38228     -16268.115    
    101000   1.0834822      316.95601      601.08229     -16265.015    
    102000   1.071276       316.58895      626.06523     -16321.88     
    103000   1.0710914      324.47725     -146.41943     -16331.534    
    104000   1.071287       324.70104      5.7907221     -16346.981    
    105000   1.0776816      318.51486     -251.81093     -16338.856    
    106000   1.0687054      325.01631      595.33862     -16277.786    
    107000   1.0739166      318.04262      284.55578     -16303.684    
    108000   1.074389       315.64701      228.20714     -16236.081    
    109000   1.0690489      320.3694       442.71816     -16329.562    
    110000   1.0611802      318.04268     -448.801       -16250.609    
    111000   1.0678504      320.69385      93.408217     -16273.872    
    112000   1.0522754      329.25673      353.45553     -16233.012    
    113000   1.0788438      322.63708      737.69757     -16264.558    
    114000   1.0726692      319.35525      258.51765     -16395.735    
    115000   1.0779318      318.48425      910.2355      -16281.271    
    116000   1.0690797      315.77643      23.376161     -16327.014    
    117000   1.062973       318.67221      95.442783     -16174.541    
    118000   1.0724051      323.88304      312.47101     -16322.985    
    119000   1.0696249      324.91653     -186.8408      -16367.687    
    120000   1.0633998      317.95881     -478.43918     -16309.402    
    121000   1.0747378      322.70723     -133.40252     -16325.727    
    122000   1.0672078      323.67353     -97.336678     -16265.51     
    123000   1.0677175      328.92822     -50.075459     -16212.454    
    124000   1.0660599      317.05208     -926.57853     -16339.155    
    125000   1.0761971      325.67836      455.87318     -16296.654    
    126000   1.085711       321.27098      210.70353     -16315.894    
    127000   1.0810327      317.9516      -210.93727     -16421.254    
    128000   1.0635398      320.41106     -1162.7554     -16324.099    
    129000   1.0823047      319.49092      539.73358     -16347.793    
    130000   1.0553954      306.23854     -1043.9975     -16397.255    
    131000   1.07902        327.55667     -617.98852     -16251.156    
    132000   1.0780181      318.19679      204.02339     -16338.271    
    133000   1.0722712      317.56431      143.81685     -16285.76     
    134000   1.0722823      317.50544      82.503029     -16277.679    
    135000   1.0778247      324.55424      231.95972     -16303.334    
    136000   1.0471988      319.80779     -936.08124     -16227.591    
    137000   1.0723426      316.86961     -726.17627     -16328.339    
    138000   1.0645654      316.57891     -61.282828     -16509.494    
    139000   1.07466        305.96445      228.74867     -16504.602    
    140000   1.0747307      325.35463      331.65318     -16306.749    
    141000   1.0731662      314.49309      63.129757     -16449.8      
    142000   1.0815549      323.07537      560.2851      -16318.115    
    143000   1.0812608      322.1417       753.42862     -16329.198    
    144000   1.0515383      319.19105     -280.24818     -16310.669    
    145000   1.0658171      332.34673      796.03987     -16138.757    
    146000   1.0629038      323.73577      243.22125     -16284.68     
    147000   1.0572879      317.49856      321.10854     -16262.53     
    148000   1.0796514      315.79148     -18.285944     -16387.892    
    149000   1.0738939      324.43555     -407.10375     -16346.647    
    150000   1.0802066      315.67325      668.5998      -16424.321    
    151000   1.0719973      319.9378      -143.48154     -16301.458    
    152000   1.0580732      324.23324     -1225.3479     -16275.472    
    153000   1.08697        335.16652      952.03686     -16291.495    
    154000   1.0824833      308.83868      232.02594     -16484.123    
    155000   1.0667107      322.04559      574.43373     -16302.644    
    156000   1.0761967      322.03268      591.51373     -16341.425    
    157000   1.0758215      317.45206      752.75263     -16283.347    
    158000   1.0789349      322.25163      626.93435     -16248.664    
    159000   1.0912841      321.63645      819.51368     -16338.596    
    160000   1.0665955      325.32855     -534.93024     -16230.576    
    161000   1.0716354      319.65913     -619.58127     -16341.047    
    162000   1.079112       319.3097       638.86265     -16319.173    
    163000   1.0666061      316.56696     -661.26971     -16370.04     
    164000   1.0832931      315.1078       817.05585     -16314.618    
    165000   1.0694138      313.35585      252.3611      -16368.967    
    166000   1.0721677      320.02777     -69.457984     -16327.571    
    167000   1.0580064      314.31214     -229.82321     -16324.61     
    168000   1.0624027      324.07635     -264.15172     -16223.556    
    169000   1.0726688      330.05999     -358.03307     -16238.945    
    170000   1.064254       323.03721     -292.74346     -16197.803    
    171000   1.0806108      318.79054     -178.80119     -16403.248    
    172000   1.0642832      317.56198      92.560853     -16239.385    
    173000   1.0491909      320.18229     -161.55914     -16167.302    
    174000   1.0554455      317.27472     -246.77558     -16238.227    
    175000   1.0590589      313.92704     -364.06576     -16370.628    
    176000   1.0677438      323.4319       316.84209     -16245.354    
    177000   1.0596957      316.4125      -519.13917     -16306.266    
    178000   1.0786292      328.5745       607.36447     -16230.98     
    179000   1.0806271      311.38691     -80.071069     -16384.754    
    180000   1.0657811      319.71986      50.260922     -16256.524    
    181000   1.0731518      309.82576      197.10635     -16334.161    
    182000   1.0766552      307.02834     -130.10129     -16386.138    
    183000   1.0672882      314.07646      543.78419     -16368.446    
    184000   1.0811097      312.73127     -58.208228     -16350.607    
    185000   1.0719265      314.89057      17.343177     -16365.079    
    186000   1.0721633      320.61115     -55.428935     -16238.53     
    187000   1.0787568      323.03279      720.88578     -16308.197    
    188000   1.0709759      320.42635      352.50732     -16262.966    
    189000   1.0696749      315.52857     -336.1476      -16339.042    
    190000   1.0941971      329.09415      278.98303     -16223.699    
    191000   1.0685859      314.99043     -409.54528     -16377.245    
    192000   1.0574148      317.12702      383.31938     -16235.878    
    193000   1.0796879      326.65887      617.99534     -16265.819    
    194000   1.0803789      321.94543     -99.011962     -16327.119    
    195000   1.0832031      326.22706      701.22927     -16334.913    
    196000   1.0693892      314.62731     -302.06889     -16327.533    
    197000   1.0603204      322.31381     -240.01198     -16259.136    
    198000   1.0660993      321.31227     -705.20191     -16230.01     
    199000   1.0836657      321.28395     -53.293495     -16365.921    
    200000   1.0678344      318.76844     -558.13654     -16270.578    
    201000   1.0637199      326.01063     -613.3283      -16336.448    
    202000   1.0632918      326.60053     -373.90658     -16251.756    
    203000   1.0765362      315.14674      659.89715     -16312.101    
    204000   1.0631072      317.77544      291.1787      -16347.126    
    205000   1.0705596      317.35234      169.5299      -16430.235    
    206000   1.0539646      316.50805     -444.12817     -16387.555    
    207000   1.0631981      323.50624      117.95078     -16295.809    
    208000   1.0751861      318.48781     -76.485651     -16271.18     
    209000   1.0761714      325.17537      83.625495     -16288.724    
    210000   1.0786396      321.90974      220.49203     -16313.817    
    211000   1.076982       317.53533      692.40993     -16315.559    
    212000   1.0610845      332.24282     -999.48663     -16186.869    
    213000   1.076638       316.79569     -45.919344     -16353.095    
    214000   1.0623322      317.19469      61.461824     -16274.606    
    215000   1.0739857      320.08437     -594.47154     -16402.034    
    216000   1.0593443      323.76598     -818.69336     -16296.018    
    217000   1.0777264      326.6227      -188.53154     -16303.838    
    218000   1.0715037      321.37249     -176.25797     -16191.183    
    219000   1.0616358      330.67876     -374.07745     -16222.514    
    220000   1.0702605      312.17077     -160.86666     -16266.348    
    221000   1.0615326      325.60488      293.71295     -16336.129    
    222000   1.0666261      324.36464      327.8695      -16192.308    
    223000   1.068842       318.04136      161.14626     -16338.348    
    224000   1.0810938      326.93469      362.20388     -16338.449    
    225000   1.0594768      331.45537     -731.91428     -16244.562    
    226000   1.0816706      322.73389     -219.8754      -16334.251    
    227000   1.0618611      317.62466     -330.69608     -16288.047    
    228000   1.0744304      316.73291      330.61725     -16358.496    
    229000   1.0737909      315.83957     -294.53683     -16300.436    
    230000   1.0674445      320.49175     -822.47422     -16232.614    
    231000   1.0618739      323.80186     -179.95723     -16265.222    
    232000   1.0770029      321.16051      110.32198     -16339.022    
    233000   1.079831       318.17772      340.4713      -16391.549    
    234000   1.0815008      328.08454      108.01017     -16244.502    
    235000   1.0680402      310.6986      -348.6524      -16276.543    
    236000   1.0666998      325.61516      841.99476     -16213.312    
    237000   1.0635507      319.58682     -777.97643     -16328.503    
    238000   1.068679       320.07372     -396.78879     -16294.145    
    239000   1.0755632      318.89227      897.49361     -16272.649    
    240000   1.0859066      317.9975       254.03919     -16281.731    
    241000   1.0772483      318.72729     -131.22504     -16378.418    
    242000   1.0699571      315.91999      266.47268     -16372.157    
    243000   1.0767144      306.65204      964.84406     -16453.979    
    244000   1.0777836      327.76656      411.98279     -16277.078    
    245000   1.0715206      334.38926      729.03404     -16217.035    
    246000   1.0704993      329.5395       91.2924       -16263.964    
    247000   1.0655615      325.53973      255.09104     -16189.126    
    248000   1.0662955      326.1547       83.050401     -16262.729    
    249000   1.0655813      329.8697      -576.50041     -16199.203    
    250000   1.0586283      323.65231     -792.62724     -16191.709    
    251000   1.0718839      321.69588      276.74171     -16271.352    
    252000   1.0625122      314.17114      160.11523     -16259.039    
    253000   1.0710398      318.13985      200.90019     -16321.247    
    254000   1.0720426      327.37964      235.73298     -16254.811    
    255000   1.0607768      313.13573      400.34772     -16247.994    
    256000   1.0624019      319.22308     -893.3079      -16289.816    
    257000   1.0525104      324.04067     -144.12065     -16231.279    
    258000   1.0740702      321.17656     -244.8312      -16336.994    
    259000   1.0707644      314.31162      935.05442     -16320.021    
    260000   1.0510798      316.48359     -788.92396     -16346.555    
    261000   1.0777925      321.97834     -299.28078     -16345.234    
    262000   1.0580201      321.16215     -30.352752     -16220.481    
    263000   1.0699934      336.13485      619.04782     -16239.03     
    264000   1.0698024      314.6748       311.28977     -16372.432    
    265000   1.0662397      324.28733     -93.716221     -16277.522    
    266000   1.0602266      319.83865     -464.69156     -16291.407    
    267000   1.0710763      318.30308      390.27225     -16414.717    
    268000   1.0752143      312.48496     -193.98722     -16371.194    
    269000   1.0674659      322.05341      71.05894      -16366.719    
    270000   1.0820268      324.59217      561.13418     -16350.202    
    271000   1.0632513      333.16384     -231.40938     -16232.519    
    272000   1.073379       326.06423     -2.6886032     -16316.238    
    273000   1.0723494      322.60023     -296.66587     -16338.211    
    274000   1.0805147      319.80847      683.77608     -16408.1      
    275000   1.0691457      309.39964     -50.728405     -16397.306    
    276000   1.0680192      319.16727     -15.25698      -16230.532    
    277000   1.0782438      330.95183      394.62524     -16410.779    
    278000   1.0808985      322.53287      298.67706     -16354.769    
    279000   1.0707964      329.30933     -203.93725     -16320.246    
    280000   1.0544131      322.4001      -808.05349     -16241.666    
    281000   1.0723382      325.83897      186.74348     -16300.026    
    282000   1.0656947      324.82585      379.38951     -16378.594    
    283000   1.0702113      325.71848      311.85862     -16247.646    
    284000   1.0674732      324.47432      48.387282     -16343.207    
    285000   1.0636114      324.09172      254.33907     -16205.859    
    286000   1.0793345      318.69356      721.80918     -16337.832    
    287000   1.0772536      308.9854       606.36286     -16403.009    
    288000   1.0525181      317.9462      -734.25691     -16301.773    
    289000   1.071651       310.36287      332.91265     -16356.575    
    290000   1.0739288      330.4288      -461.77345     -16269.335    
    291000   1.0690481      317.85408     -357.99339     -16372.394    
    292000   1.0634665      321.51598      203.68429     -16361.474    
    293000   1.082557       330.84235      333.55203     -16211.811    
    294000   1.0630016      319.45575     -619.73893     -16354.412    
    295000   1.0607586      318.86492     -407.3937      -16276.493    
    296000   1.0670427      320.2732      -512.61667     -16310.784    
    297000   1.0801937      321.05116     -1.8530052     -16273.86     
    298000   1.0746169      308.32597      1016.3918     -16426.554    
    299000   1.0654481      323.18047     -133.9314      -16217.271    
    300000   1.0683141      325.49094      247.17638     -16321.811    
    301000   1.0777074      328.29224     -91.205296     -16249.156    
    302000   1.0686172      317.62281     -22.757211     -16326.599    
    303000   1.0617109      316.5601      -547.86457     -16352.112    
    304000   1.0676664      322.81293     -1253.404      -16314.643    
    305000   1.0644489      320.86307      455.40824     -16260.458    
    306000   1.0842826      336.95856      769.36197     -16110.806    
    307000   1.0737352      315.33849     -457.50095     -16344.459    
    308000   1.0639979      322.65387     -180.76633     -16136.205    
    309000   1.0778734      326.64329      417.24268     -16342.332    
    310000   1.0843405      313.47286      909.28603     -16457.816    
    311000   1.075735       322.87928      82.617918     -16282.674    
    312000   1.0727802      312.61976     -673.0374      -16449.71     
    313000   1.0658748      316.55124     -514.35213     -16364.424    
    314000   1.0723729      312.56278     -293.16568     -16403.171    
    315000   1.0805932      324.46941      671.45173     -16276        
    316000   1.0691269      334.15662     -231.01756     -16184.777    
    317000   1.0781458      314.69262      798.32455     -16433.965    
    318000   1.062937       323.41109     -50.806307     -16231.35     
    319000   1.0552232      320.8786      -665.48605     -16321.719    
    320000   1.0785458      315.54826      779.80296     -16374.737    
    321000   1.0873694      317.18247     -338.67894     -16367.781    
    322000   1.0775458      327.7531       1488.9195     -16342.914    
    323000   1.0865392      321.84461      263.19899     -16398.262    
    324000   1.0724138      329.67327      988.73539     -16381.068    
    325000   1.0790335      322.4764       24.892408     -16264.138    
    326000   1.0708269      322.50621     -239.27632     -16285.986    
    327000   1.0701306      319.779       -37.632112     -16240.322    
    328000   1.0627092      326.28187     -184.12421     -16257.542    
    329000   1.0719159      325.60551      339.9868      -16268.769    
    330000   1.078746       323.39014      551.53119     -16386.75     
    331000   1.0719916      331.9661       207.17149     -16287.89     
    332000   1.0653275      320.45227     -645.13892     -16293.549    
    333000   1.0829613      311.76404      977.52599     -16391.745    
    334000   1.0816009      325.45385      75.461517     -16340.535    
    335000   1.0821999      324.89409     -252.68876     -16236.592    
    336000   1.0656201      316.68026     -86.791741     -16366.77     
    337000   1.0832912      316.03669      182.34524     -16362.619    
    338000   1.071929       329.76368     -274.61703     -16292.093    
    339000   1.0755963      327.95645      698.9411      -16316.701    
    340000   1.0775489      330.57105      510.15348     -16241.668    
    341000   1.0729964      322.25419      42.826633     -16221.252    
    342000   1.0634447      319.76406     -79.591782     -16342.592    
    343000   1.0565364      317.53542      216.7556      -16242.307    
    344000   1.0695866      308.38455     -135.00234     -16420.187    
    345000   1.0727599      315.58039      691.41739     -16344.283    
    346000   1.075236       321.32158     -624.75556     -16373.47     
    347000   1.0680284      316.33209     -166.90816     -16346.916    
    348000   1.0587975      318.04981     -878.88717     -16312.151    
    349000   1.0692319      330.46854     -19.471477     -16250.44     
    350000   1.0719873      322.83511      345.55483     -16406.252    
    351000   1.0845844      322.52029      187.31669     -16382.352    
    352000   1.0705079      328.75426     -188.72996     -16260.845    
    353000   1.0564818      318.12856     -416.01446     -16236.88     
    354000   1.0800883      320.90666      489.4886      -16266.811    
    355000   1.0609617      333.55053     -105.44709     -16256.48     
    356000   1.0785839      316.53057      1004.6703     -16348.452    
    357000   1.0832574      322.08001      698.25485     -16415.193    
    358000   1.0788371      319.72233      223.43689     -16274.843    
    359000   1.0811622      325.49982      162.06586     -16369.513    
    360000   1.0621473      320.22777     -337.55289     -16293.03     
    361000   1.0820938      321.7856       546.74539     -16324.368    
    362000   1.0766631      317.89738      312.20355     -16359.443    
    363000   1.0714415      320.53858      698.55847     -16353.382    
    364000   1.0821167      335.0425       783.85838     -16200.252    
    365000   1.0752208      316.42601     -850.70517     -16351.501    
    366000   1.0771927      324.05185      285.17879     -16262.515    
    367000   1.057553       323.20824     -688.49514     -16174.486    
    368000   1.0838011      313.23053      568.47766     -16395.527    
    369000   1.0766013      319.91552      458.78029     -16348.41     
    370000   1.0571698      324.92146     -260.27331     -16226.09     
    371000   1.067195       317.26817     -38.460682     -16396.578    
    372000   1.0776706      316.94093      261.06809     -16337.441    
    373000   1.0779354      316.18845     -249.67278     -16288.543    
    374000   1.0655464      332.34677     -956.81566     -16236.311    
    375000   1.0736284      323.97335      157.22999     -16306.844    
    376000   1.0659255      323.45602     -715.99897     -16394.529    
    377000   1.0600449      314.26311     -767.53208     -16293.181    
    378000   1.0663953      324.17886      131.08202     -16311.128    
    379000   1.0839892      322.90942      859.22834     -16391.029    
    380000   1.0627067      319.29998      1070.2772     -16248.331    
    381000   1.0687344      319.78425     -140.33194     -16228.899    
    382000   1.0751371      324.87262      205.54552     -16280.645    
    383000   1.0617254      319.95027      176.5388      -16317.81     
    384000   1.0739025      325.297        441.86815     -16308.161    
    385000   1.0724104      310.68548     -1084.8031     -16334.621    
    386000   1.0793222      322.09119      595.70416     -16399.683    
    387000   1.0843348      324.77584     -227.31308     -16338.703    
    388000   1.0654587      321.49572      1.6682942     -16303.165    
    389000   1.0730501      316.96608      160.8701      -16249.542    
    390000   1.0657752      313.96636      587.07078     -16407.776    
    391000   1.0719553      321.11873     -17.744973     -16260.954    
    392000   1.0787062      328.4269       615.28992     -16296.695    
    393000   1.0752074      324.39264      521.89008     -16346.455    
    394000   1.0694948      325.57608      426.4696      -16386.389    
    395000   1.0696789      318.70743      381.24022     -16286.819    
    396000   1.0682864      317.43936     -562.29911     -16371.125    
    397000   1.0626036      325.26947     -284.76974     -16171.74     
    398000   1.0622332      315.31177     -365.01434     -16325.869    
    399000   1.0650118      319.9463      -284.69872     -16354.522    
    400000   1.0550405      325.27341     -1111.3544     -16151.314    
    401000   1.0687789      321.62674     -368.80234     -16317.636    
    402000   1.0767408      319.13661     -675.62617     -16348.543    
    403000   1.0647809      310.14361     -158.70863     -16286.893    
    404000   1.0630227      316.92443     -75.490894     -16421.665    
    405000   1.0580354      324.75374     -115.32382     -16288.662    
    406000   1.0636133      322.35986     -53.957807     -16364.875    
    407000   1.0589456      326.16174     -65.86621      -16140.465    
    408000   1.0675708      326.41382      368.88387     -16300.567    
    409000   1.0694579      328.1244       251.98995     -16295.657    
    410000   1.0776784      321.78663      480.29736     -16308.865    
    411000   1.0897139      326.99919      614.06684     -16319.625    
    412000   1.0704345      326.24772     -424.61375     -16271.367    
    413000   1.0561577      309.15574     -603.64177     -16295.831    
    414000   1.0754238      314.31835     -134.9106      -16346.074    
    415000   1.0704382      325.31483     -431.41001     -16296.111    
    416000   1.0766649      323.28792      88.103229     -16269.514    
    417000   1.0713063      325.94188      487.0706      -16348.923    
    418000   1.0770136      315.27622     -267.03575     -16348.838    
    419000   1.0740215      325.89567      460.41348     -16332.584    
    420000   1.0743616      317.09198     -685.48573     -16344.113    
    421000   1.0683396      315.34773      116.07539     -16367.677    
    422000   1.0743977      323.55208     -56.384848     -16266.435    
    423000   1.0797311      331.39939      339.79141     -16283.708    
    424000   1.0698556      327.00601      310.52353     -16310.797    
    425000   1.0658549      317.79521      805.98142     -16325.708    
    426000   1.0721113      330.84978     -311.72988     -16253.418    
    427000   1.0691372      321.8918       42.011472     -16308.381    
    428000   1.0717468      314.52322      798.35289     -16298.689    
    429000   1.0648468      319.54817     -82.899888     -16390.927    
    430000   1.0672246      320.39557      323.7441      -16220.016    
    431000   1.0560947      320.40917     -317.70481     -16202.619    
    432000   1.0759863      320.61596     -254.86039     -16348.865    
    433000   1.0704735      320.17521     -560.60776     -16314.538    
    434000   1.0632879      314.12822      9.676035      -16399.005    
    435000   1.0694263      322.93639      926.55881     -16333.641    
    436000   1.0820354      323.89402     -542.52406     -16277.503    
    437000   1.0691572      316.39094     -475.49954     -16328.26     
    438000   1.0693147      335.69013     -160.2596      -16191.341    
    439000   1.0642601      324.19266     -596.6465      -16268.958    
    440000   1.0492023      323.0243      -841.12023     -16184.638    
    441000   1.0591145      311.80776     -696.37247     -16305.695    
    442000   1.0723419      319.85464     -153.57129     -16387.249    
    443000   1.0738317      326.53871      368.38468     -16280.304    
    444000   1.0678211      323.2958       89.989226     -16233.673    
    445000   1.0741015      317.26547      636.39309     -16377.649    
    446000   1.0815345      320.56159      420.57935     -16332.063    
    447000   1.0605816      310.83174      42.410927     -16325.888    
    448000   1.0712921      322.71622     -32.470493     -16253.06     
    449000   1.0544599      317.25545     -673.87541     -16316.623    
    450000   1.0698167      320.67666     -669.46113     -16316.767    
    451000   1.0687263      321.8341       454.08782     -16268.796    
    452000   1.0818632      308.23399      15.122799     -16417.762    
    453000   1.0715086      332.36577     -437.83817     -16272.549    
    454000   1.0651357      326.24362     -275.54134     -16382.822    
    455000   1.080911       312.4827       687.85971     -16405.8      
    456000   1.08533        327.55723      753.52979     -16274.656    
    457000   1.0634862      319.34761      181.19459     -16253.38     
    458000   1.0744395      326.53929      392.35688     -16315.698    
    459000   1.0842129      316.26476     -31.108885     -16423.931    
    460000   1.0745715      329.9326       385.42503     -16259.333    
    461000   1.0777687      316.21029     -78.414106     -16296.469    
    462000   1.0644156      318.90667      303.97021     -16214.612    
    463000   1.0694515      311.65436     -267.82733     -16387.337    
    464000   1.0698777      327.5701      -18.290833     -16223.156    
    465000   1.0730145      316.12407      77.663411     -16398.09     
    466000   1.0695253      310.49248     -570.93466     -16358.316    
    467000   1.0665102      321.64847      523.69362     -16346.968    
    468000   1.0588499      313.47109     -102.64626     -16391.686    
    469000   1.0768587      322.14134     -209.95952     -16313.798    
    470000   1.0802201      319.61663      972.35955     -16252.967    
    471000   1.0713592      315.62265     -73.693136     -16378.544    
    472000   1.056321       313.59471     -652.53883     -16399.16     
    473000   1.0753015      323.02235      978.01787     -16260.608    
    474000   1.0798064      315.83833     -144.08208     -16331.667    
    475000   1.0651155      315.44834      162.43896     -16380.453    
    476000   1.0640987      328.06811      350.42268     -16220.581    
    477000   1.0620461      325.3312       381.85089     -16295.468    
    478000   1.0548565      317.03029      44.341217     -16328.439    
    479000   1.0710557      318.50717     -290.87079     -16352.748    
    480000   1.0771769      323.6923       59.964732     -16335.637    
    481000   1.0653872      325.67687      458.60833     -16362.356    
    482000   1.0720519      312.91887     -233.95767     -16353.402    
    483000   1.0658159      318.17328      231.38943     -16425.994    
    484000   1.0652307      326.52105      869.29371     -16200.886    
    485000   1.0715614      320.74395      44.159877     -16361.267    
    486000   1.0689146      324.35674      191.39107     -16274.615    
    487000   1.070863       327.09221     -346.84661     -16260.218    
    488000   1.0604953      313.10329     -262.95848     -16310.738    
    489000   1.0602319      332.16609      7.2363891     -16313.864    
    490000   1.0713873      312.53677      620.1578      -16392.007    
    491000   1.0581552      325.17123     -378.84497     -16274.029    
    492000   1.0745058      323.71178     -231.08277     -16294.42     
    493000   1.0623425      312.28075      142.67118     -16455.873    
    494000   1.0740906      318.92339     -312.17438     -16298.578    
    495000   1.0838533      318.82071      516.89986     -16293.945    
    496000   1.0819939      316.71148      609.3982      -16340.278    
    497000   1.0766627      317.75571     -14.947515     -16286.656    
    498000   1.0738429      319.55921      298.91323     -16287.434    
    499000   1.0760319      315.0205      -66.360854     -16372.619    
    500000   1.0612611      326.26149     -375.44705     -16246.956    
    501000   1.0654857      324.80592      525.17102     -16142.07     
    502000   1.0683699      323.33514      559.24766     -16393.336    
    503000   1.0747624      320.32426      749.51807     -16342.643    
    504000   1.0797389      315.98454     -223.13274     -16344.641    
    505000   1.0618679      324.14389     -324.19692     -16306.656    
    506000   1.0799457      314.06538      843.85438     -16348.811    
    507000   1.0757748      320.17277      126.9586      -16297.433    
    508000   1.0553839      328.63815     -846.21522     -16211.23     
    509000   1.0603742      314.21092     -1055.7092     -16377.473    
    510000   1.0740655      318.3216       484.03469     -16345.023    
    511000   1.0722202      323.76362      406.33278     -16314.436    
    512000   1.084247       319.17211      580.63189     -16372.11     
    513000   1.0617217      320.53723     -256.22021     -16347.48     
    514000   1.0627807      317.00243     -336.84099     -16212.664    
    515000   1.062979       321.33198     -784.78619     -16289.564    
    516000   1.0731212      324.62185     -223.03768     -16313.626    
    517000   1.0569515      324.08354     -644.21599     -16230.313    
    518000   1.082094       328.35136      1503.7921     -16276.581    
    519000   1.0770518      317.44558      836.3378      -16339.679    
    520000   1.0833122      317.37905     -347.49943     -16317.699    
    521000   1.0712597      322.23876     -278.30948     -16325.401    
    522000   1.0689308      314.38288      289.73552     -16305.732    
    523000   1.0792356      328.18347      797.21147     -16222.841    
    524000   1.0779849      321.12695      862.51936     -16349.055    
    525000   1.0695549      323.97201      74.967087     -16229.324    
    526000   1.0734051      323.6773      -43.272888     -16231.006    
    527000   1.0602309      319.26396      120.12879     -16381.064    
    528000   1.089508       318.68123      56.476472     -16391.863    
    529000   1.0664687      318.80059      427.558       -16334.696    
    530000   1.0600492      320.05023     -7.7418495     -16380.991    
    531000   1.0663827      323.60785     -473.3342      -16338.606    
    532000   1.0660919      316.20689     -317.15558     -16378.555    
    533000   1.0798216      310.24652      235.82344     -16484.571    
    534000   1.072438       315.60246      128.64942     -16464.964    
    535000   1.0735811      314.24833     -941.72515     -16374.437    
    536000   1.0572392      320.07037     -554.54655     -16308.675    
    537000   1.0682952      323.22287     -274.95483     -16365.295    
    538000   1.0883587      327.96059     -1003.7466     -16278.711    
    539000   1.0635347      324.14375      220.96078     -16273.31     
    540000   1.0659028      320.97239     -1097.1431     -16260.62     
    541000   1.054299       326.47555     -1197.8568     -16200.239    
    542000   1.0564505      322.83001     -47.860126     -16269.246    
    543000   1.0682409      323.30576      963.61897     -16282.832    
    544000   1.0707141      321.19783     -302.9534      -16247.644    
    545000   1.0642239      324.16722      605.67431     -16301.367    
    546000   1.0685971      315.96128     -73.70613      -16273.491    
    547000   1.0662544      312.38847      148.66638     -16378.155    
    548000   1.0764125      312.33705      905.53163     -16360.151    
    549000   1.0679991      324.08897     -73.793488     -16280.62     
    550000   1.0653827      321.71577     -34.223189     -16282.515    
    551000   1.0639731      320.55451     -585.60724     -16275.602    
    552000   1.0721834      312.39604     -216.92045     -16379.631    
    553000   1.0813728      314.13752      472.72818     -16382.062    
    554000   1.0688963      325.1923       235.74878     -16240.056    
    555000   1.0700094      317.33944     -163.73586     -16237.039    
    556000   1.0647796      327.62568      125.45744     -16125.257    
    557000   1.0702517      315.16506      56.128441     -16290.204    
    558000   1.0629004      315.25617     -215.90774     -16274.816    
    559000   1.0749992      313.2903       295.60486     -16405.723    
    560000   1.0641074      322.68685     -51.429836     -16334.195    
    561000   1.0651995      323.27704      333.14073     -16256.337    
    562000   1.0641663      319.68309     -142.52281     -16293.046    
    563000   1.0612932      327.33607     -589.46494     -16201.157    
    564000   1.0665848      328.63925      225.28871     -16228.553    
    565000   1.0829738      315.21092      550.90899     -16401.854    
    566000   1.0803546      318.23727     -327.1311      -16347.706    
    567000   1.0737025      320.97913     -483.55512     -16278.117    
    568000   1.0684866      305.73192      68.947576     -16491.749    
    569000   1.0606797      313.59537     -114.61679     -16244.298    
    570000   1.0713776      320.63885      286.51583     -16274.83     
    571000   1.0715125      311.50429     -687.35502     -16454.638    
    572000   1.0639734      312.39386      123.99209     -16323.334    
    573000   1.0587455      321.90201     -38.745874     -16252.575    
    574000   1.0690556      318.89666     -576.62163     -16316.564    
    575000   1.0743586      322.93624      595.98067     -16231.146    
    576000   1.0672783      316.31256     -339.11024     -16338.471    
    577000   1.0833565      316.59257      477.50096     -16371.599    
    578000   1.0677793      332.16616     -284.01095     -16218.676    
    579000   1.0814952      325.17987      1054.6495     -16278.149    
    580000   1.0579968      328.83703      330.17606     -16200.337    
    581000   1.0611835      327.27865     -547.88764     -16152.518    
    582000   1.0560722      316.45607     -515.7285      -16356.462    
    583000   1.0585911      321.8434       175.07303     -16248.648    
    584000   1.0676712      313.17675     -145.38132     -16332.254    
    585000   1.0592339      320.79393      133.58158     -16389.149    
    586000   1.0678372      321.47554     -174.74277     -16265.024    
    587000   1.0665037      331.50291     -1086.4057     -16221.553    
    588000   1.0613519      328.7474      -55.424689     -16197.755    
    589000   1.0712893      327.69932     -562.05035     -16241.08     
    590000   1.0727356      324.30283      227.7986      -16267.931    
    591000   1.0740652      312.09475      130.50923     -16324.907    
    592000   1.0725254      314.53789     -110.12877     -16299.937    
    593000   1.0777596      309.73479      267.04573     -16414.893    
    594000   1.0692504      319.79919     -321.10551     -16314.804    
    595000   1.0741363      315.0154       550.58172     -16263.16     
    596000   1.0729955      318.1955       610.74161     -16368.703    
    597000   1.0710379      333.91402     -405.47603     -16276.469    
    598000   1.0639804      323.7826       76.392155     -16226.835    
    599000   1.0603244      332.23066     -29.131844     -16113.029    
    600000   1.0778593      319.24931      126.53121     -16326.773    
    601000   1.0752649      318.04757      177.06274     -16394.475    
    602000   1.0598034      312.51174     -135.8762      -16342.95     
    603000   1.0706493      318.46221     -245.50993     -16336.026    
    604000   1.0660072      319.75748     -82.090942     -16361.166    
    605000   1.074739       323.90602      2.608476      -16247.03     
    606000   1.0719874      318.97504      280.01969     -16261.157    
    607000   1.0761857      324.14993     -119.59426     -16295.23     
    608000   1.0609111      315.94129     -574.29097     -16329.301    
    609000   1.0691986      310.56629     -567.94744     -16374.431    
    610000   1.0675542      320.5626      -211.62302     -16286.937    
    611000   1.0642569      318.41032      328.98431     -16251.362    
    612000   1.0635679      321.38425     -68.69796      -16369.985    
    613000   1.0646089      326.42457      531.21917     -16191.78     
    614000   1.0708272      320.86621      167.60292     -16373.12     
    615000   1.0801444      321.22499      178.35871     -16153.12     
    616000   1.0721071      315.88849      369.34353     -16322.318    
    617000   1.0723291      323.05737     -165.40932     -16287.894    
    618000   1.0832172      323.5146      -142.11133     -16352.097    
    619000   1.0698245      320.04227      189.09974     -16282.045    
    620000   1.0835004      318.0081       113.92374     -16304.965    
    621000   1.058481       317.65636      223.26299     -16267.685    
    622000   1.0772291      317.28266     -471.79711     -16340.853    
    623000   1.0748244      326.99902      250.98209     -16306.44     
    624000   1.067887       321.00934     -13.913911     -16366.539    
    625000   1.0557636      320.5957      -267.86317     -16288.876    
    626000   1.0679926      319.1077      -58.559853     -16342.491    
    627000   1.0721735      314.39547     -23.963492     -16395.663    
    628000   1.0771679      311.00054      7.014394      -16425.506    
    629000   1.0644496      320.40842     -165.96968     -16341.576    
    630000   1.0604148      333.43585     -95.144168     -16141.922    
    631000   1.064161       314.21093     -551.07075     -16335.943    
    632000   1.0634921      311.36362     -1143.8909     -16336.235    
    633000   1.0579653      319.86825      456.4599      -16264.982    
    634000   1.0739151      322.8098       778.00935     -16179.415    
    635000   1.0605938      323.24487     -109.2415      -16338.984    
    636000   1.0772165      329.77481     -571.95731     -16398.183    
    637000   1.0736593      321.33614     -171.33686     -16330.73     
    638000   1.0671841      323.06701      571.275       -16396.641    
    639000   1.0725608      314.17395      312.94373     -16312.802    
    640000   1.0766799      323.43081      633.18999     -16288.787    
    641000   1.0708439      329.46167     -238.51106     -16268.073    
    642000   1.0651287      323.4364      -720.56985     -16240.138    
    643000   1.0759692      310.37244     -324.10759     -16395.008    
    644000   1.0748628      320.13818      305.85097     -16259.668    
    645000   1.0645869      314.38036     -59.339677     -16358.478    
    646000   1.0873182      326.22134     -540.57731     -16291.152    
    647000   1.0711605      319.86         178.02476     -16335.168    
    648000   1.0675564      323.5056       185.31026     -16368.88     
    649000   1.0718309      323.24279     -720.55073     -16286.918    
    650000   1.0712726      314.1572      -332.14817     -16324.23     
    651000   1.0715671      325.54913      559.90273     -16238.807    
    652000   1.0796967      322.99827      1015.297      -16280.988    
    653000   1.0752149      323.93998      507.88516     -16414.111    
    654000   1.0769963      317.60462      490.71028     -16373.202    
    655000   1.0741482      318.75309      928.97286     -16340.525    
    656000   1.067526       323.80794      99.581107     -16274.369    
    657000   1.0704739      323.80277     -16.173354     -16283.566    
    658000   1.0679217      316.15946      370.44988     -16320.283    
    659000   1.0759661      319.19336     -594.05607     -16318.412    
    660000   1.07894        326.8205       768.48634     -16329.246    
    661000   1.0689614      322.56967     -852.70651     -16242.817    
    662000   1.0610917      308.25399      34.576334     -16362.586    
    663000   1.0516291      325.68785     -818.49472     -16282.365    
    664000   1.0610755      318.86972     -1046.2347     -16349.781    
    665000   1.0638072      323.53217     -355.40226     -16369.823    
    666000   1.0745591      313.64733      27.494544     -16385.494    
    667000   1.0593951      320.25747      110.03283     -16315.745    
    668000   1.0855347      314.41576      233.45652     -16401.282    
    669000   1.0672125      333.8905      -660.00186     -16274.121    
    670000   1.0657539      313.1243      -1389.5538     -16270.461    
    671000   1.0706785      313.17486      395.53942     -16335.152    
    672000   1.0765322      316.19387     -479.59299     -16353.094    
    673000   1.0686013      315.27701      807.04192     -16380.937    
    674000   1.0702004      312.06906      597.74688     -16337.504    
    675000   1.060668       321.13519      130.95198     -16265.596    
    676000   1.0801869      326.99679      1301.9874     -16245.834    
    677000   1.0619993      322.03632      262.96688     -16349.575    
    678000   1.0625265      321.00257      221.207       -16265.818    
    679000   1.0700574      328.02003     -305.89983     -16331.958    
    680000   1.0698132      320.71458      469.04488     -16359.011    
    681000   1.067004       332.90006     -595.36148     -16210.344    
    682000   1.0669344      314.42109      414.08946     -16332.83     
    683000   1.0681643      323.72072     -124.87405     -16285.829    
    684000   1.0762072      331.06987      1128.2582     -16248.186    
    685000   1.0575736      326.69773     -46.193472     -16323.753    
    686000   1.0763481      313.90925     -507.25984     -16395.856    
    687000   1.0809445      321.33609      393.18835     -16378.651    
    688000   1.0747894      316.99126      383.4918      -16259.337    
    689000   1.0725936      304.65276     -437.33899     -16484.522    
    690000   1.0675036      332.00992     -215.60201     -16273.684    
    691000   1.0737344      320.88163      343.845       -16377.522    
    692000   1.0621067      321.34755     -432.44194     -16360.075    
    693000   1.0716816      322.27557      676.2146      -16184.377    
    694000   1.0688053      316.98679     -360.89978     -16290.62     
    695000   1.0799449      319.36737      540.00544     -16213.774    
    696000   1.0673065      319.62551     -291.01566     -16463.997    
    697000   1.0452228      316.62301     -800.28369     -16312.668    
    698000   1.0771884      304.35316      585.07344     -16457.147    
    699000   1.0707691      320.15781      109.91326     -16223.249    
    700000   1.0694004      323.98902     -49.629946     -16221.99     
    701000   1.0684878      324.89122      492.87316     -16240.95     
    702000   1.0648329      327.37937     -397.88332     -16254.081    
    703000   1.0521621      316.00174     -420.3983      -16213.896    
    704000   1.0679417      316.49257     -587.20477     -16373.105    
    705000   1.0703859      326.1902       330.12212     -16237.84     
    706000   1.0633102      321.1787      -236.85085     -16284.005    
    707000   1.0539072      326.52637     -212.41212     -16329.271    
    708000   1.0751014      312.50033      320.8104      -16340.657    
    709000   1.0747524      325.16158      418.08519     -16236.448    
    710000   1.0715931      326.7573       213.05528     -16353.439    
    711000   1.0613724      328.147       -448.73979     -16232.79     
    712000   1.070355       318.52997     -348.49973     -16298.712    
    713000   1.0600192      323.70413     -1239.4289     -16340.254    
    714000   1.0644711      324.12395     -404.47603     -16340.899    
    715000   1.0576331      322.85454      39.458108     -16250.778    
    716000   1.0771863      319.03635      996.01829     -16313.058    
    717000   1.0646235      323.38353     -996.92306     -16343.685    
    718000   1.0656469      317.73609     -9.6657331     -16346.221    
    719000   1.0783203      313.12679      225.51406     -16406.578    
    720000   1.0660656      321.2311      -12.195714     -16311.46     
    721000   1.0835505      320.71821     -37.652805     -16357.611    
    722000   1.0785404      317.93577      1628.9157     -16358.926    
    723000   1.0624659      315.73844     -158.28024     -16334.18     
    724000   1.0659533      317.97627      406.32508     -16383.19     
    725000   1.0699519      329.587       -96.515471     -16354.261    
    726000   1.0595202      323.85024     -173.76741     -16336.028    
    727000   1.0635495      310.91302     -114.72073     -16299.689    
    728000   1.0613726      322.62465     -957.26022     -16231.004    
    729000   1.0721147      328.25044      614.21304     -16253.145    
    730000   1.0679641      320.60723     -533.85763     -16357.308    
    731000   1.076106       312.14658     -221.7557      -16342.314    
    732000   1.0633677      324.15311     -841.22882     -16304.774    
    733000   1.0723531      325.74418     -524.4677      -16433.284    
    734000   1.061483       320.00896     -61.350742     -16383.281    
    735000   1.0719365      319.22377     -736.72788     -16413.314    
    736000   1.0608972      315.5191      -221.41961     -16358.497    
    737000   1.0570924      324.16209      112.26853     -16386.216    
    738000   1.0714107      320.20284      118.01189     -16390.691    
    739000   1.0795601      312.83658      68.963166     -16288.758    
    740000   1.0634147      325.43842      1027.8433     -16281.142    
    741000   1.0709509      317.79994      132.34464     -16237.206    
    742000   1.0728677      326.8019      -220.37631     -16266.296    
    743000   1.076642       324.62025     -77.201098     -16320.666    
    744000   1.0673598      317.11421      540.30386     -16320.986    
    745000   1.0738016      334.4999      -355.21088     -16173.995    
    746000   1.0717161      321.30154      546.72323     -16279.979    
    747000   1.0686832      318.413       -542.25879     -16214.164    
    748000   1.0892952      320.77394      114.9641      -16326.93     
    749000   1.0734822      311.49572      9.4065461     -16323.149    
    750000   1.076729       324.19848      774.34146     -16250.977    
    751000   1.0740555      309.01827     -1037.0521     -16354.842    
    752000   1.0706792      321.91759     -275.47823     -16296.159    
    753000   1.0851503      308.72146     -556.16052     -16456.574    
    754000   1.0724023      316.16528      84.484601     -16333.395    
    755000   1.058717       316.88779     -945.20603     -16340.795    
    756000   1.0720386      323.46783     -336.5486      -16264.93     
    757000   1.0676832      327.44058     -197.18213     -16223.298    
    758000   1.0753136      317.94606     -478.53754     -16310.576    
    759000   1.0803868      329.3266       105.33476     -16303.389    
    760000   1.0743852      313.92103     -82.236836     -16363.831    
    761000   1.0735484      316.5037       273.1846      -16260.308    
    762000   1.0624654      323.77406     -355.13788     -16284.83     
    763000   1.0628282      328.643        315.69072     -16218.96     
    764000   1.0702242      325.338        144.20563     -16308.703    
    765000   1.0766296      327.57394     -171.86943     -16196.562    
    766000   1.0835125      322.58311      482.85357     -16357.021    
    767000   1.0656839      317.60664      519.39669     -16306.399    
    768000   1.0754566      326.53885      711.29027     -16349.339    
    769000   1.0831415      316.57882      56.874933     -16430.183    
    770000   1.0807863      321.2117       162.33176     -16400.182    
    771000   1.0741374      324.20623     -334.71057     -16321.658    
    772000   1.0701523      324.53102     -144.27913     -16377.833    
    773000   1.0634118      322.42302     -692.24123     -16271.748    
    774000   1.0767024      322.42185      556.58803     -16248.133    
    775000   1.0748923      325.99496     -70.784226     -16249.258    
    776000   1.0831151      321.48298      149.99857     -16360.957    
    777000   1.0621722      318.51442     -41.222199     -16297.127    
    778000   1.0610996      331.99322     -669.82304     -16278.868    
    779000   1.0605884      332.49932      18.387183     -16161.42     
    780000   1.0849072      325.65186      686.74219     -16270.557    
    781000   1.0699669      331.26357      51.864955     -16317.689    
    782000   1.070916       319.86452      712.00687     -16294.33     
    783000   1.0742285      318.02774      730.32832     -16320.212    
    784000   1.0697106      319.02753     -647.99891     -16376.508    
    785000   1.0877375      307.65397      1125.3408     -16483.048    
    786000   1.0626754      329.09445     -392.48086     -16221.996    
    787000   1.077199       313.6379      -182.46076     -16371.065    
    788000   1.0704572      314.36964     -214.77718     -16354.38     
    789000   1.0882578      337.59432      721.54838     -16189.914    
    790000   1.06112        332.93515      385.81019     -16215.098    
    791000   1.0666669      317.68604     -452.58584     -16262.445    
    792000   1.0872655      325.71903      255.56102     -16366.515    
    793000   1.0680804      316.2901      -203.05982     -16360.206    
    794000   1.0525369      320.42921     -263.49285     -16302.576    
    795000   1.0583869      312.56175     -1353.9828     -16332.634    
    796000   1.0518321      324.30467     -620.21786     -16293.286    
    797000   1.0571121      325.27239     -749.41266     -16303.382    
    798000   1.0713067      319.85004      440.5093      -16340.34     
    799000   1.0638752      314.92137     -381.55915     -16302.288    
    800000   1.0607322      325.01101     -1199.0352     -16283.653    
    801000   1.0574557      323.07365     -964.2392      -16279.299    
    802000   1.0813207      326.03269      48.023482     -16265.674    
    803000   1.0727913      322.85538     -5.8540567     -16340.488    
[...]
  10291000   1.0702716      324.02784     -51.112758     -14525.52     
  10292000   1.0702716      321.83503     -157.02067     -14466.188    
  10293000   1.0702716      323.35454      133.24822     -14569.048    
  10294000   1.0702716      329.61516      261.51915     -14443.539    
  10295000   1.0702716      322.43706     -3.972831      -14539.24     
  10296000   1.0702716      324.97185      423.92093     -14587.654    
  10297000   1.0702716      326.74664      647.47015     -14552.924    
  10298000   1.0702716      317.67955     -283.87759     -14561.595    
  10299000   1.0702716      336.89078     -170.04898     -14441.999    
  10300000   1.0702716      320.02767      387.32564     -14608.828    
  10301000   1.0702716      314.03793      323.91651     -14598.817    
  10302000   1.0702716      325.25082      334.20121     -14513.158    
  10303000   1.0702716      321.48055      3.6061619     -14461.626    
  10304000   1.0702716      323.14645     -42.574234     -14596.235    
  10305000   1.0702716      321.07884     -1052.1923     -14470.46     
  10306000   1.0702716      323.31329     -709.2168      -14522.2      
  10307000   1.0702716      322.03238      60.625216     -14526.122    
  10308000   1.0702716      321.32932     -113.99485     -14592.292    
  10309000   1.0702716      320.32782      965.11408     -14618.367    
  10310000   1.0702716      326.41346      150.78833     -14575.349    
  10311000   1.0702716      317.88657      586.44235     -14544.816    
  10312000   1.0702716      320.56112      389.33603     -14472.312    
  10313000   1.0702716      324.53083     -329.26002     -14603.148    
  10314000   1.0702716      321.64556      21.556484     -14643.613    
  10315000   1.0702716      316.23559     -526.87717     -14551.955    
  10316000   1.0702716      316.21734     -241.10704     -14674.128    
  10317000   1.0702716      322.75454      445.12288     -14372.465    
  10318000   1.0702716      320.37511      6.7154863     -14500.71     
  10319000   1.0702716      318.39686     -522.44789     -14569.552    
  10320000   1.0702716      325.2327      -590.32082     -14533.656    
  10321000   1.0702716      321.59303      126.32784     -14526.972    
  10322000   1.0702716      328.36304     -79.562484     -14521.197    
  10323000   1.0702716      329.40236      395.79064     -14520.145    
  10324000   1.0702716      320.42854     -482.65524     -14626.328    
  10325000   1.0702716      320.16957     -515.51804     -14625.698    
  10326000   1.0702716      329.96437     -482.39225     -14503.556    
  10327000   1.0702716      324.14695      679.27814     -14440.796    
  10328000   1.0702716      331.94689     -418.66703     -14573.532    
  10329000   1.0702716      331.57754      946.27777     -14474.051    
  10330000   1.0702716      319.43997     -222.89787     -14573.759    
  10331000   1.0702716      323.43136      130.17542     -14468.872    
  10332000   1.0702716      323.995        371.04441     -14460.05     
  10333000   1.0702716      318.74617      509.30656     -14521.374    
  10334000   1.0702716      320.75315      392.59602     -14555.177    
  10335000   1.0702716      316.68683     -311.93781     -14526.691    
  10336000   1.0702716      317.88215      279.54343     -14570.773    
  10337000   1.0702716      310.18957     -530.34166     -14570.669    
  10338000   1.0702716      327.40316     -400.099       -14511.95     
  10339000   1.0702716      317.65613     -227.00173     -14525.286    
  10340000   1.0702716      323.8142       21.905541     -14511.834    
  10341000   1.0702716      307.63253     -160.16521     -14647.317    
  10342000   1.0702716      313.39872     -587.30994     -14563.405    
  10343000   1.0702716      325.34894     -420.58958     -14530.418    
  10344000   1.0702716      322.30386     -111.37378     -14567.642    
  10345000   1.0702716      319.97374      78.831426     -14617.993    
  10346000   1.0702716      329.63699      644.34007     -14449.552    
  10347000   1.0702716      320.39062     -394.76386     -14497.648    
  10348000   1.0702716      320.70823      39.315351     -14486.215    
  10349000   1.0702716      311.74477     -250.09923     -14645.079    
  10350000   1.0702716      311.31221     -1015.6088     -14501.389    
  10351000   1.0702716      317.67179     -153.2836      -14527.312    
  10352000   1.0702716      320.34537      695.55731     -14514.926    
  10353000   1.0702716      315.15699      167.45069     -14572.929    
  10354000   1.0702716      311.24388     -298.28291     -14617.537    
  10355000   1.0702716      327.16567      426.88463     -14511.462    
  10356000   1.0702716      322.599        120.6448      -14499.756    
  10357000   1.0702716      328.11566     -693.94505     -14534.835    
  10358000   1.0702716      323.35374      221.6575      -14452.253    
  10359000   1.0702716      328.81398      72.460485     -14390.889    
  10360000   1.0702716      312.71337     -1066.3228     -14582.175    
  10361000   1.0702716      319.53252      353.38643     -14570.322    
  10362000   1.0702716      316.05503     -104.90735     -14575.964    
  10363000   1.0702716      332.25926     -27.291313     -14324.72     
  10364000   1.0702716      315.67885     -386.38664     -14648.553    
  10365000   1.0702716      311.0085      -32.901714     -14629.493    
  10366000   1.0702716      324.78909     -625.01506     -14535.156    
  10367000   1.0702716      309.8666      -540.49276     -14691.065    
  10368000   1.0702716      321.43204      867.41003     -14487.722    
  10369000   1.0702716      322.67842      624.9501      -14520.606    
  10370000   1.0702716      311.38775     -517.75458     -14603.346    
  10371000   1.0702716      324.43305     -234.75925     -14402.117    
  10372000   1.0702716      320.02408      194.15411     -14503.175    
  10373000   1.0702716      322.91527     -963.61645     -14548.291    
  10374000   1.0702716      319.32987     -39.930487     -14566.569    
  10375000   1.0702716      321.15164     -382.32087     -14542.022    
  10376000   1.0702716      319.14224      705.78449     -14550.142    
  10377000   1.0702716      320.61727      226.14777     -14594.708    
  10378000   1.0702716      319.30061      225.66978     -14616.813    
  10379000   1.0702716      316.51653     -613.57759     -14595.173    
  10380000   1.0702716      319.10583     -89.40273      -14604.459    
  10381000   1.0702716      319.89067     -839.80664     -14530.041    
  10382000   1.0702716      322.13479     -137.77813     -14559.492    
  10383000   1.0702716      333.49166     -344.80396     -14513.862    
  10384000   1.0702716      316.56566      197.74442     -14574.583    
  10385000   1.0702716      314.65184     -174.74045     -14601.567    
  10386000   1.0702716      329.47801     -208.66068     -14505.472    
  10387000   1.0702716      327.12076     -556.05438     -14522.244    
  10388000   1.0702716      326.52944     -176.15536     -14390.188    
  10389000   1.0702716      313.5591      -572.00139     -14612.81     
  10390000   1.0702716      329.82551     -242.15916     -14533.872    
  10391000   1.0702716      329.80123      198.03822     -14547.191    
  10392000   1.0702716      313.51973     -76.359176     -14628.719    
  10393000   1.0702716      324.3794      -687.82182     -14541.52     
  10394000   1.0702716      326.13496      206.1169      -14458.236    
  10395000   1.0702716      311.66167     -353.82164     -14557.96     
  10396000   1.0702716      339.97108      490.24141     -14310.857    
  10397000   1.0702716      326.29347      47.214048     -14527.17     
  10398000   1.0702716      318.02592      70.579578     -14658.334    
  10399000   1.0702716      315.77154      73.326072     -14565.211    
  10400000   1.0702716      320.65588     -230.512       -14536.336    
  10401000   1.0702716      332.33703      28.911696     -14444.948    
  10402000   1.0702716      324.58299      1046.2411     -14502.881    
  10403000   1.0702716      307.09267     -158.83052     -14652.495    
  10404000   1.0702716      321.33975      426.82476     -14602.245    
  10405000   1.0702716      320.1512      -92.006006     -14598.971    
  10406000   1.0702716      335.67881     -86.361732     -14423.11     
  10407000   1.0702716      313.65124     -91.966313     -14555.935    
  10408000   1.0702716      319.84061      248.52884     -14494.918    
  10409000   1.0702716      314.03142     -502.21073     -14587.76     
  10410000   1.0702716      327.09334     -166.42883     -14444.151    
  10411000   1.0702716      327.04566      373.22421     -14572.828    
  10412000   1.0702716      320.95903     -305.91559     -14475.494    
  10413000   1.0702716      320.29149     -138.75463     -14556.01     
  10414000   1.0702716      313.38065     -117.71454     -14525.096    
  10415000   1.0702716      314.89085     -183.30132     -14521.157    
  10416000   1.0702716      315.4244       515.12938     -14602.574    
  10417000   1.0702716      315.06596      764.06903     -14564.94     
  10418000   1.0702716      318.57425      53.471825     -14525.833    
  10419000   1.0702716      318.82898     -300.46808     -14458.367    
  10420000   1.0702716      311.94063     -254.81279     -14629.214    
  10421000   1.0702716      317.73732      275.20856     -14520.696    
  10422000   1.0702716      322.14515      544.12119     -14518.496    
  10423000   1.0702716      325.00014     -276.84842     -14527.12     
  10424000   1.0702716      322.10348      148.62949     -14577.675    
  10425000   1.0702716      325.97086     -433.78376     -14517.136    
  10426000   1.0702716      312.09466      480.1382      -14615.41     
  10427000   1.0702716      321.99714      271.2538      -14590.007    
  10428000   1.0702716      328.67422     -264.63737     -14562.782    
  10429000   1.0702716      330.87722     -320.71514     -14494.086    
  10430000   1.0702716      315.46036     -63.2845       -14538.383    
  10431000   1.0702716      327.40799     -120.0555      -14482.867    
  10432000   1.0702716      313.90498     -6.2506246     -14600.549    
  10433000   1.0702716      314.9675       255.80613     -14614.2      
  10434000   1.0702716      313.96849     -45.384988     -14671.148    
  10435000   1.0702716      326.15499     -756.89669     -14478.395    
  10436000   1.0702716      322.56127     -161.33402     -14480.51     
  10437000   1.0702716      327.16962     -45.774363     -14547.261    
  10438000   1.0702716      317.99668      116.83884     -14585.097    
  10439000   1.0702716      324.76845      879.69334     -14613.688    
  10440000   1.0702716      331.20093     -256.43327     -14465.756    
  10441000   1.0702716      318.9393       70.983433     -14597.035    
  10442000   1.0702716      322.32795     -494.88573     -14526.171    
  10443000   1.0702716      324.22806     -1201.1491     -14411.416    
  10444000   1.0702716      318.082        44.181482     -14525.296    
  10445000   1.0702716      317.22816     -601.32965     -14647.228    
  10446000   1.0702716      330.88652      3.8435967     -14504.33     
  10447000   1.0702716      326.64461      891.93773     -14353.043    
  10448000   1.0702716      314.43874      297.11798     -14590.512    
  10449000   1.0702716      327.08327     -403.53761     -14532.505    
  10450000   1.0702716      319.8865       742.93756     -14444.29     
  10451000   1.0702716      324.88075     -344.34408     -14465.194    
  10452000   1.0702716      323.95131      387.77366     -14478.487    
  10453000   1.0702716      320.96253      35.175614     -14474.141    
  10454000   1.0702716      318.42648     -104.12832     -14570.61     
  10455000   1.0702716      319.91254      459.03796     -14476.944    
  10456000   1.0702716      322.39795     -111.6987      -14500.109    
  10457000   1.0702716      322.07792     -123.30581     -14523.768    
  10458000   1.0702716      315.65668      740.85963     -14598.171    
  10459000   1.0702716      316.44933     -311.58319     -14579.956    
  10460000   1.0702716      312.82533      315.4394      -14447.482    
  10461000   1.0702716      315.0775      -653.6476      -14632.854    
  10462000   1.0702716      325.56014      333.22147     -14489.058    
  10463000   1.0702716      331.22815      166.54798     -14469.543    
  10464000   1.0702716      312.31681     -360.55481     -14528.478    
  10465000   1.0702716      321.30026      480.7776      -14584.416    
  10466000   1.0702716      326.69281      675.79595     -14438.161    
  10467000   1.0702716      322.18552      46.331711     -14466.941    
  10468000   1.0702716      319.34424     -22.197247     -14563.974    
  10469000   1.0702716      320.28874      294.93598     -14514.207    
  10470000   1.0702716      311.98627     -18.139636     -14647.074    
  10471000   1.0702716      325.29984     -460.40009     -14416.559    
  10472000   1.0702716      313.18991      98.747696     -14485.319    
  10473000   1.0702716      328.73056     -94.689325     -14530.444    
  10474000   1.0702716      323.46204     -225.14591     -14493.864    
  10475000   1.0702716      317.40455     -56.110748     -14586.029    
  10476000   1.0702716      322.11504      539.39328     -14447.153    
  10477000   1.0702716      319.13305     -593.66817     -14585.638    
  10478000   1.0702716      314.09837     -933.62419     -14583.443    
  10479000   1.0702716      331.66383      444.67194     -14428.47     
  10480000   1.0702716      321.51142     -373.71548     -14582.327    
  10481000   1.0702716      309.96415     -1.6545544     -14547.037    
  10482000   1.0702716      329.44397     -37.02048      -14472.565    
  10483000   1.0702716      325.01405     -206.33956     -14363.944    
  10484000   1.0702716      312.16022     -5.663535      -14566.685    
  10485000   1.0702716      314.26477     -374.28695     -14586.47     
  10486000   1.0702716      325.61266     -222.57022     -14488.592    
  10487000   1.0702716      323.06924     -341.15115     -14521.268    
  10488000   1.0702716      320.96286      326.15756     -14491.078    
  10489000   1.0702716      319.1853      -247.71602     -14525.812    
  10490000   1.0702716      311.16754     -216.35744     -14648.853    
  10491000   1.0702716      320.25578      33.302797     -14509.537    
  10492000   1.0702716      309.00777      488.52587     -14714.692    
  10493000   1.0702716      325.8598      -527.06998     -14555.236    
  10494000   1.0702716      317.89954     -502.95957     -14557.844    
  10495000   1.0702716      313.52794      245.54032     -14586.681    
  10496000   1.0702716      321.74228     -176.80384     -14514.328    
  10497000   1.0702716      324.71335      88.895972     -14467.234    
  10498000   1.0702716      328.89159     -496.08618     -14416.814    
  10499000   1.0702716      314.84142     -270.2146      -14548.046    
  10500000   1.0702716      331.38674      210.47247     -14413.294    
  10501000   1.0702716      314.95232     -673.01284     -14543.342    
  10502000   1.0702716      319.48671     -309.89103     -14562.161    
  10503000   1.0702716      316.00347     -628.86016     -14591.659    
  10504000   1.0702716      322.18446     -1151.8147     -14558.733    
  10505000   1.0702716      325.45016     -265.07646     -14500.515    
  10506000   1.0702716      327.77027      111.64352     -14396.344    
  10507000   1.0702716      327.14549      230.93325     -14588.182    
  10508000   1.0702716      322.22297      16.597098     -14530.342    
  10509000   1.0702716      320.33896     -272.81329     -14585.908    
  10510000   1.0702716      318.38028      232.99548     -14517.664    
  10511000   1.0702716      316.22005     -242.54722     -14540.085    
  10512000   1.0702716      315.47465     -441.70609     -14602.08     
  10513000   1.0702716      327.08257     -109.97564     -14467.463    
  10514000   1.0702716      317.11502      539.42066     -14566.085    
  10515000   1.0702716      308.20333     -614.77407     -14626.392    
  10516000   1.0702716      325.79087      432.9117      -14586.718    
  10517000   1.0702716      312.43989      502.26089     -14623.442    
  10518000   1.0702716      321.31314     -171.03547     -14458.923    
  10519000   1.0702716      309.1477      -827.88423     -14604.424    
  10520000   1.0702716      322.15607      408.39343     -14517.039    
  10521000   1.0702716      322.34641      161.50918     -14491.147    
  10522000   1.0702716      325.97101      38.176011     -14531.82     
  10523000   1.0702716      321.41555     -798.56802     -14572.645    
  10524000   1.0702716      323.6449      -108.7217      -14499.388    
  10525000   1.0702716      310.30134     -361.56966     -14543.765    
  10526000   1.0702716      312.34088      703.99268     -14508.599    
  10527000   1.0702716      320.87004     -83.611287     -14536.718    
  10528000   1.0702716      323.763        244.24938     -14585.6      
  10529000   1.0702716      322.50075      325.92473     -14532.944    
  10530000   1.0702716      315.82785      62.027583     -14597.641    
  10531000   1.0702716      317.88984     -135.52936     -14570.089    
  10532000   1.0702716      312.04445     -666.2224      -14593.225    
  10533000   1.0702716      327.28235     -50.667129     -14507.649    
  10534000   1.0702716      322.16768      439.02391     -14461.665    
  10535000   1.0702716      326.8652      -263.52169     -14552.412    
  10536000   1.0702716      328.86143      149.7079      -14478.421    
  10537000   1.0702716      320.69911     -268.63904     -14540.74     
  10538000   1.0702716      318.81525     -117.24808     -14612.775    
  10539000   1.0702716      320.45887     -322.82106     -14609.244    
  10540000   1.0702716      317.67558     -325.73931     -14602.463    
  10541000   1.0702716      322.2018       21.959287     -14556.06     
  10542000   1.0702716      323.64146     -432.9247      -14513.645    
  10543000   1.0702716      320.97364     -282.33605     -14531.666    
  10544000   1.0702716      328.43853      283.94796     -14566.226    
  10545000   1.0702716      319.18881      24.175793     -14571.05     
  10546000   1.0702716      314.5699      -120.3721      -14613.43     
  10547000   1.0702716      330.59623      62.101433     -14484.837    
  10548000   1.0702716      332.51326      191.70531     -14535.774    
  10549000   1.0702716      320.17274      513.90427     -14603.014    
  10550000   1.0702716      322.22089     -121.34873     -14595.449    
Loop time of 1296.67 on 32 procs for 500000 steps with 3162 atoms

Performance: 66.632 ns/day, 0.360 hours/ns, 385.603 timesteps/s
99.6% CPU use with 32 MPI tasks x no OpenMP threads

MPI task timing breakdown:
Section |  min time  |  avg time  |  max time  |%varavg| %total
---------------------------------------------------------------
Pair    | 374.07     | 418.58     | 454.72     |  99.5 | 32.28
Bond    | 1.5907     | 1.7245     | 1.8139     |   4.6 |  0.13
Kspace  | 276.75     | 311.24     | 350.82     | 109.1 | 24.00
Neigh   | 126        | 133.27     | 146.95     |  49.5 | 10.28
Comm    | 96.595     | 105.58     | 111.18     |  33.9 |  8.14
Output  | 6.3283     | 6.3347     | 6.344      |   0.2 |  0.49
Modify  | 304.09     | 313.28     | 318.88     |  19.8 | 24.16
Other   |            | 6.665      |            |       |  0.51

Nlocal:        98.8125 ave         109 max          90 min
Histogram: 3 2 3 8 5 1 2 3 2 3
Nghost:        4255.91 ave        4291 max        4222 min
Histogram: 1 2 4 4 7 5 2 4 1 2
Neighs:        39302.7 ave       46671 max       34367 min
Histogram: 1 5 5 6 5 4 3 2 0 1

Total # of neighbors = 1257685
Ave neighs/atom = 397.74984
Ave special neighs/atom = 2.0341556
Neighbor list builds = 114747
Dangerous builds = 0

quit
