3162
 Atoms. Timestep: 0
Ow 16.8321 29.3319 13.3582
H 15.9809 29.5018 13.7617
H 17.3572 30.1031 13.572
Ow 19.6541 15.6396 11.9648
H 19.4073 15.0815 12.7022
H 19.2723 16.4927 12.1711
Ow 22.3383 5.37892 11.3292
H 22.3767 4.92833 10.4855
H 21.4631 5.76549 11.3552
Ow 15.5125 19.6281 10.9056
H 15.0909 18.8063 10.6545
H 14.8075 20.1539 11.2834
Ow 26.3532 31.1062 16.2284
H 25.8369 30.3077 16.3381
H 27.2337 30.7958 16.0174
Ow 14.0664 25.8607 2.66187
H 13.1866 25.5503 2.44779
H 13.9249 26.5673 3.29188
Ow 5.06965 15.897 3.10902
H 4.85392 16.6823 3.61207
H 4.39201 15.8503 2.43462
Ow 21.1621 22.7653 18.3929
H 21.1855 22.2771 17.5699
H 22.082 22.9276 18.6019
Ow 20.8506 24.9296 28.4765
H 20.5897 25.358 29.2917
H 21.8052 24.9987 28.4639
Ow 28.9268 13.7876 17.1584
H 29.8514 13.6483 17.3633
H 28.5233 12.9273 17.2734
Ow 19.2022 17.4452 27.0897
H 19.8615 16.7599 27.1987
H 18.8229 17.2783 26.2269
Ow 5.82256 1.13779 24.03
H 6.37291 1.85509 24.3443
H 5.00218 1.55925 23.7739
Ow 31.2518 6.16058 1.29703
H 0.24684 6.45406 2.04614
H 0.376599 5.93277 0.630619
Ow 30.7871 23.2183 27.947
H 30.3259 23.1778 28.7848
H 30.932 24.1528 27.7979
Ow 30.6961 25.14 12.0227
H 29.9892 25.0269 11.3874
H 31.2003 24.3282 11.9679
Ow 23.3557 30.4615 26.0438
H 22.8057 31.0449 26.567
H 24.2417 30.8074 26.1509
Ow 30.1819 11.3424 19.5137
H 30.3302 11.8549 20.3085
H 30.5292 10.4745 19.7197
Ow 8.11587 24.2572 17.5586
H 7.80071 24.2974 18.4615
H 9.05889 24.1147 17.6397
Ow 8.25367 22.9986 22.1153
H 9.0174 22.432 22.0061
H 8.04699 22.9454 23.0482
Ow 8.64633 28.0186 31.5811
H 9.56167 27.8732 0.296898
H 8.21403 27.1854 0.245029
Ow 12.6994 12.1082 24.7311
H 13.5589 11.7019 24.8428
H 12.7617 12.9363 25.207
Ow 15.7065 23.6565 4.13836
H 15.3836 24.1941 3.41518
H 15.708 22.7642 3.79202
Ow 12.7395 12.1088 29.6251
H 13.5819 11.7451 29.3525
H 12.0927 11.4751 29.3147
Ow 30.4983 0.684435 20.6924
H 29.6133 0.862933 20.3745
H 30.8449 1.54372 20.9327
Ow 20.7766 10.181 2.77481
H 19.9906 10.6049 2.43021
H 20.8417 10.4932 3.67723
Ow 20.0295 10.0395 20.1341
H 20.9221 10.3622 20.2575
H 19.5471 10.7925 19.793
Ow 16.0184 12.9551 23.875
H 16.6399 12.9737 24.6028
H 16.5204 13.2684 23.1227
Ow 1.63858 10.6659 23.9818
H 1.0811 9.92435 23.746
H 2.06266 10.3977 24.7969
Ow 17.3637 0.464255 9.22612
H 18.0818 1.0922 9.14732
H 16.9542 0.458282 8.36105
Ow 0.457963 13.0094 23.8499
H 0.775526 12.1139 23.966
H 1.2513 13.5445 23.8289
Ow 15.6225 21.2505 30.0171
H 15.1582 20.4476 30.2534
H 15.2129 21.5328 29.1994
Ow 29.5949 22.0127 0.597691
H 30.3615 21.4402 0.570942
H 28.8509 21.4236 0.472205
Ow 30.4121 9.43924 10.9932
H 30.3439 9.45834 11.9478
H 31.0379 8.73822 10.8113
Ow 2.11051 25.4037 29.0959
H 2.38763 25.0895 28.2353
H 1.32136 25.9165 28.9215
Ow 19.0648 29.506 6.95435
H 18.7005 29.5354 7.839
H 18.7725 28.6653 6.60229
Ow 15.8648 4.68577 26.6071
H 15.7663 5.11613 25.7579
H 15.8859 3.75114 26.4016
Ow 23.8409 5.87251 6.34406
H 23.2072 5.24085 6.00406
H 23.6216 6.69343 5.90341
Ow 0.360702 16.0729 20.7053
H 1.27199 15.7978 20.6052
H 31.4815 15.3829 21.2325
Ow 1.59547 30.4071 9.14641
H 1.54529 31.1548 9.74209
H 0.904664 29.8157 9.44515
Ow 23.5668 24.38 2.4427
H 23.4933 24.7319 1.5556
H 24.5007 24.4342 2.64576
Ow 26.4824 27.2821 2.93605
H 25.6612 27.7738 2.94015
H 26.7538 27.2758 2.01817
Ow 2.69513 14.3279 29.9363
H 3.64637 14.2219 29.9172
H 2.35244 13.4454 29.7952
Ow 0.541063 7.38509 8.2414
H 1.39038 7.36387 8.68258
H 0.266323 6.46915 8.20546
Ow 30.0658 18.5322 16.6789
H 29.2895 18.1851 16.2394
H 30.0579 18.1187 17.5421
Ow 25.8494 16.4272 4.45038
H 25.458 17.2991 4.50336
H 25.2359 15.9206 3.91834
Ow 0.177429 19.555 2.70364
H 30.9093 19.2049 3.1125
H 0.63264 18.7847 2.36359
Ow 9.53186 28.9761 13.6552
H 9.75672 29.2982 14.5281
H 10.0181 29.5438 13.0573
Ow 12.437 21.5384 20.1866
H 12.4363 22.4939 20.1291
H 13.3008 21.2793 19.8658
Ow 4.13831 26.3075 16.392
H 4.04418 26.6782 15.5146
H 4.18348 27.0688 16.9705
Ow 5.40279 4.52931 23.8968
H 4.96367 5.12275 23.2876
H 4.75492 4.3667 24.5824
Ow 15.6235 4.81173 17.14
H 16.4478 4.40734 17.4108
H 15.5173 4.55079 16.2252
Ow 7.73728 0.968185 31.242
H 6.88072 1.21915 31.5882
H 8.11365 0.405133 0.395022
Ow 27.4297 4.82886 26.3995
H 27.1694 4.49751 25.5401
H 28.3157 4.49058 26.529
Ow 19.1268 16.377 31.2879
H 19.7467 16.804 30.6965
H 18.8452 15.5937 30.8156
Ow 23.544 24.6076 31.1966
H 24.4008 24.2771 31.4666
H 22.952 23.865 31.3157
Ow 7.86375 0.89683 12.8211
H 7.52639 31.558 13.0639
H 8.45235 1.13464 13.5375
Ow 17.8778 21.7876 28.1712
H 17.3374 21.629 27.3972
H 17.4396 21.3058 28.8727
Ow 7.96553 11.6837 28.4066
H 7.76345 11.8011 29.3348
H 8.67695 12.3009 28.2359
Ow 3.45119 4.68416 10.1615
H 4.04069 4.03094 10.5384
H 2.59726 4.25238 10.1394
Ow 1.77879 17.57 30.2187
H 2.01049 16.8018 30.7407
H 2.5628 17.754 29.7014
Ow 13.1868 22.9693 0.761039
H 12.84 22.1836 1.18361
H 14.0916 23.0273 1.06793
Ow 12.7588 29.1634 18.4708
H 13.3825 29.743 18.0334
H 13.2443 28.3506 18.6113
Ow 4.84255 29.1697 29.2187
H 4.78629 30.0519 29.5858
H 4.98821 29.3081 28.2828
Ow 27.0642 1.71268 3.40296
H 26.9936 2.2073 4.21939
H 27.9585 1.87293 3.10186
Ow 25.3438 9.69684 28.5174
H 26.0829 9.09337 28.5929
H 25.7441 10.5662 28.5038
Ow 27.7962 10.3741 7.87478
H 28.1986 9.51285 7.98663
H 27.9072 10.5717 6.94485
Ow 28.7895 0.667501 0.197921
H 28.6704 31.5431 0.89243
H 27.9151 0.784943 31.3502
Ow 5.607 17.6119 22.7711
H 6.40795 17.3591 23.2302
H 5.56083 17.0162 22.0233
Ow 2.92772 14.0459 23.9789
H 3.48863 13.4442 24.4683
H 3.34006 14.1115 23.1176
Ow 13.8604 2.11826 8.32524
H 14.4097 1.76213 9.02354
H 12.9773 2.12492 8.6944
Ow 29.2981 30.9375 29.2311
H 29.4509 30.0129 29.0363
H 28.7413 31.2447 28.5156
Ow 12.4608 13.697 13.9623
H 11.6214 14.0969 13.7349
H 12.7038 13.1915 13.1867
Ow 8.54939 4.93017 26.6488
H 7.86193 4.69898 27.2734
H 8.20075 5.68675 26.1774
Ow 11.8934 17.3626 28.2096
H 12.6854 16.9032 27.9302
H 11.6853 17.9471 27.4808
Ow 8.20524 27.7997 23.1375
H 8.04745 27.0903 23.7604
H 7.46917 27.7516 22.5275
Ow 8.73541 8.00643 16.3148
H 8.96044 8.90334 16.0677
H 9.5039 7.68796 16.7883
Ow 20.7886 17.7531 21.21
H 20.4209 17.9067 20.3397
H 21.7297 17.8891 21.1003
Ow 16.8864 7.88888 31.1301
H 17.2825 8.10469 30.2859
H 16.2262 7.22741 30.9233
Ow 30.4269 29.0954 12.906
H 31.2399 29.1326 13.4099
H 30.3685 29.9511 12.4811
Ow 1.75259 12.6782 2.83763
H 0.871868 12.8133 2.48796
H 1.81651 11.7321 2.96789
Ow 15.6503 22.1679 1.04254
H 15.3446 21.4548 1.60309
H 15.6935 21.7834 0.167078
Ow 29.6238 31.3196 23.1291
H 29.081 0.472551 23.5342
H 29.9949 0.218265 22.3543
Ow 9.42495 22.2105 31.4428
H 9.07252 21.3207 31.4517
H 10.3615 22.0962 31.2814
Ow 6.81794 6.88384 24.9681
H 6.16239 6.27341 24.6306
H 6.38107 7.32714 25.6953
Ow 14.2186 24.4184 9.66731
H 13.9123 25.2538 10.0202
H 15.171 24.4552 9.75618
Ow 10.0817 3.32309 23.276
H 9.27643 3.33249 23.7934
H 10.7648 3.07686 23.8997
Ow 10.5792 2.41457 18.1501
H 11.0694 3.1976 18.4007
H 10.9306 1.72214 18.7098
Ow 5.80019 24.6419 19.4921
H 4.91314 24.6704 19.1336
H 5.84045 23.812 19.9673
Ow 20.4993 19.5772 0.721204
H 20.8151 19.2029 31.4222
H 19.6119 19.8765 0.523482
Ow 2.0774 26.0623 20.1597
H 1.68534 26.7348 19.6025
H 2.46977 25.4413 19.5463
Ow 26.7264 14.2441 15.5864
H 27.499 14.4631 16.1073
H 26.4716 15.0704 15.1759
Ow 27.4537 6.54181 12.2993
H 28.2729 6.04709 12.3172
H 27.0619 6.32647 11.4529
Ow 17.2196 13.8168 10.9074
H 16.8131 13.997 10.0597
H 17.5828 14.6583 11.1831
Ow 13.9262 17.0396 5.82942
H 13.8107 16.2126 6.29742
H 13.0382 17.3087 5.5949
Ow 21.6513 12.8506 1.72703
H 21.2043 13.6529 1.99658
H 21.8088 12.3775 2.5441
Ow 23.3487 9.43968 30.4602
H 23.1351 10.359 30.6198
H 24.0096 9.46355 29.7681
Ow 3.93334 14.0516 4.69596
H 4.40283 14.1035 5.52848
H 4.41108 14.6424 4.11382
Ow 5.67597 10.5981 3.18692
H 6.49314 10.8167 3.63473
H 5.93609 9.98569 2.49853
Ow 27.2914 8.93077 2.10886
H 26.3653 9.03127 2.32899
H 27.3178 8.98127 1.15337
Ow 1.99872 3.4987 0.848348
H 2.56326 3.78642 1.56578
H 1.45416 2.81149 1.23227
Ow 24.3527 21.0053 2.12693
H 24.6334 20.0927 2.19404
H 23.5249 21.0376 2.60639
Ow 2.58224 7.67869 28.2674
H 1.63178 7.67579 28.1544
H 2.83431 6.75759 28.2022
Ow 18.4358 8.49438 5.45854
H 18.395 9.13801 6.16585
H 17.733 8.74942 4.86097
Ow 10.1703 11.767 3.15141
H 10.0097 11.2454 2.36509
H 9.94944 12.6624 2.89468
Ow 21.01 3.77756 16.5788
H 20.1402 3.38257 16.5181
H 20.9356 4.59777 16.091
Ow 29.3298 7.93128 8.46333
H 29.0981 7.05577 8.15347
H 30.2763 7.89446 8.60109
Ow 0.44498 16.8265 11.5356
H 31.3493 17.5558 11.5683
H 1.30632 17.2402 11.5907
Ow 25.8683 13.9146 11.7798
H 25.8698 14.5889 12.4592
H 25.1802 14.1871 11.1728
Ow 12.8323 25.1921 5.97814
H 13.7161 25.3673 6.30132
H 12.3167 25.0265 6.76733
Ow 1.12451 14.862 4.91566
H 0.233537 14.8224 4.56805
H 1.07154 15.4833 5.64179
Ow 7.01635 9.51653 26.1773
H 6.56807 9.31974 26.9998
H 7.54531 10.2903 26.3715
Ow 18.7477 29.8419 18.9841
H 18.8524 30.2712 18.135
H 18.9796 28.9277 18.821
Ow 6.05131 12.4289 8.85576
H 6.69001 12.2113 9.53464
H 6.18876 11.7688 8.17637
Ow 31.5358 4.48139 12.7805
H 30.7224 4.75545 12.3569
H 31.304 3.67978 13.2494
Ow 27.873 8.58304 30.9038
H 28.7615 8.23005 30.95
H 27.353 7.87527 30.5231
Ow 15.422 17.5467 18.7248
H 14.8758 17.1973 18.0207
H 16.2006 17.8823 18.2805
Ow 8.09078 26.7564 19.169
H 7.66114 26.5218 18.3465
H 7.40635 26.6649 19.8319
Ow 1.03702 7.26869 12.7679
H 1.43911 6.86854 13.5389
H 1.01544 6.56714 12.1171
Ow 19.9386 23.4823 7.30338
H 20.4793 22.693 7.3309
H 19.3813 23.3647 6.53412
Ow 27.4247 10.8295 4.82597
H 26.6343 11.1354 5.27064
H 27.9912 11.6 4.78615
Ow 12.5458 14.3035 4.6394
H 12.9955 13.8242 3.94353
H 13.0217 14.0715 5.43683
Ow 27.0701 14.5091 5.83729
H 27.9688 14.5446 5.50991
H 26.5909 15.1323 5.29117
Ow 6.91238 8.65098 22.4792
H 5.98471 8.88538 22.509
H 7.07296 8.20075 23.3084
Ow 21.0595 15.5141 28.3355
H 21.705 15.5112 27.6288
H 20.3193 15.0176 27.9864
Ow 7.87376 19.8667 0.377009
H 8.41077 19.283 0.913095
H 7.25507 19.2853 31.4584
Ow 13.8618 28.3805 4.23362
H 14.497 28.8379 3.68259
H 14.1812 28.5106 5.12652
Ow 24.2607 29.6552 9.51409
H 24.3999 30.5511 9.82109
H 23.5953 29.3002 10.1035
Ow 18.0004 6.98295 20.592
H 17.8642 6.06893 20.3426
H 18.6966 6.95148 21.2481
Ow 28.3887 27.3102 10.4053
H 28.2125 27.79 11.2145
H 27.6966 27.5886 9.80562
Ow 14.5874 16.8706 1.75655
H 13.975 16.7396 2.48044
H 14.0536 16.766 0.968832
Ow 11.1441 10.7435 26.3401
H 11.6886 11.1282 25.6533
H 10.9542 11.4715 26.9318
Ow 9.78723 26.2394 11.7834
H 9.30927 25.9231 12.55
H 10.4285 25.5527 11.6001
Ow 28.8757 0.301214 5.90311
H 29.5678 0.760174 5.42714
H 28.2586 0.989325 6.15198
Ow 15.0171 24.5342 23.0506
H 15.1887 24.683 22.1207
H 14.5097 25.2976 23.3262
Ow 24.9647 28.1628 26.8573
H 25.1591 27.6351 27.6318
H 25.6842 27.9773 26.2538
Ow 7.87775 27.3177 8.14611
H 8.26428 27.7318 8.91767
H 6.93321 27.4012 8.27672
Ow 31.088 29.1007 3.53817
H 31.316 29.5602 4.34637
H 30.3557 28.5346 3.78221
Ow 15.9498 21.4172 21.6152
H 16.574 20.7548 21.3188
H 15.7849 21.9552 20.8409
Ow 17.2743 15.7661 19.68
H 16.8587 15.0757 20.1965
H 16.571 16.3915 19.5053
Ow 13.1455 4.22469 11.7418
H 13.3168 3.40927 11.2707
H 13.6057 4.89497 11.2366
Ow 22.9123 2.54235 25.8348
H 23.7279 2.11029 25.581
H 22.3575 1.8344 26.1622
Ow 10.8225 15.2299 29.3165
H 11.168 15.2264 30.2092
H 11.22 15.9991 28.9084
Ow 6.48316 20.8526 2.81634
H 6.3821 20.4377 1.95965
H 5.6065 20.8279 3.19983
Ow 14.5462 9.95088 4.7294
H 14.7563 10.6065 5.39438
H 15.3885 9.55206 4.51113
Ow 22.4406 11.2947 20.7965
H 22.7335 11.0182 19.9282
H 23.1081 10.9571 21.3937
Ow 29.6473 25.6558 23.391
H 29.1747 25.0003 23.904
H 30.3321 25.9731 23.9797
Ow 0.226412 12.8627 14.6632
H 0.135953 13.8136 14.725
H 0.16486 12.5565 15.5679
Ow 20.4881 25.9889 25.7764
H 20.5272 25.5065 26.6023
H 19.554 26.0444 25.575
Ow 7.68185 3.22123 24.6005
H 7.9337 3.76544 25.3466
H 6.95567 3.69349 24.1933
Ow 1.62652 18.1165 22.9099
H 1.42044 18.0043 21.9819
H 2.17942 17.3654 23.1254
Ow 17.3629 0.312486 20.915
H 16.7529 31.113 21.0617
H 16.8621 0.949401 20.4053
Ow 20.5581 1.20757 29.9573
H 21.5113 1.12113 29.9705
H 20.3108 0.999854 29.0562
Ow 6.17029 7.25181 7.59182
H 5.6919 7.4916 8.38544
H 5.59373 6.63472 7.14129
Ow 2.60341 14.175 27.1679
H 2.93576 13.278 27.202
H 2.55161 14.4467 28.0843
Ow 12.0558 10.1433 7.29805
H 12.9265 10.5371 7.24299
H 11.4826 10.7645 6.84874
Ow 19.7305 22.8119 13.6961
H 18.9281 22.4597 14.081
H 20.1981 23.2046 14.4332
Ow 15.0903 14.9992 28.1489
H 15.0034 15.0423 29.1012
H 15.7843 14.3571 28
Ow 2.82704 19.2901 18.0292
H 3.088 18.6365 17.3804
H 2.04287 19.6956 17.6594
Ow 29.9417 1.54798 27.0021
H 29.0217 1.39006 26.79
H 30.1471 2.37963 26.5751
Ow 22.644 27.5066 18.0694
H 22.4609 27.7551 17.1633
H 21.896 27.8394 18.5653
Ow 27.9856 7.87834 4.85957
H 27.6429 7.44587 4.07742
H 28.1053 7.17022 5.49237
Ow 30.8487 4.87317 8.09258
H 31.3973 4.4746 8.76826
H 29.9553 4.78111 8.42354
Ow 9.68884 18.4076 8.04686
H 8.93069 17.8345 7.93281
H 9.31548 19.2522 8.29858
Ow 6.49481 17.979 29.9232
H 7.03996 18.6527 29.5168
H 6.97228 17.1626 29.7755
Ow 18.0875 17.2319 24.4298
H 17.7771 16.4326 24.8551
H 17.9324 17.0832 23.497
Ow 21.523 8.95289 9.43583
H 20.953 8.29383 9.83215
H 21.2028 9.03836 8.53785
Ow 16.9819 17.4095 12.4556
H 16.6132 18.2337 12.1378
H 17.1958 17.5802 13.3729
Ow 21.8849 19.9154 28.2035
H 22.8229 20.0961 28.264
H 21.7652 19.1014 28.6928
Ow 23.773 14.501 10.2068
H 23.2992 14.7158 11.0102
H 23.8085 15.3252 9.72142
Ow 9.85968 5.48423 1.04626
H 9.59591 5.5773 0.130853
H 9.04087 5.33023 1.51747
Ow 16.2284 30.9305 6.77731
H 17.1392 30.7746 6.5276
H 15.8296 30.0603 6.78533
Ow 15.3574 29.9545 21.7606
H 15.8943 30.0907 22.5413
H 14.4671 30.1654 22.0419
Ow 13.523 26.8485 23.5802
H 12.7024 26.4664 23.2691
H 13.3779 27.7938 23.5402
Ow 14.78 7.08027 6.73241
H 15.2917 7.37349 7.48634
H 14.7282 7.84856 6.16388
Ow 28.9467 26.9419 13.418
H 29.5474 27.6559 13.2045
H 29.4134 26.1488 13.1545
Ow 12.8351 26.7189 30.5347
H 12.1964 26.526 29.8483
H 12.3062 26.987 31.2861
Ow 1.30248 7.23799 3.86908
H 1.97888 7.30167 3.19482
H 0.799331 8.04755 3.78147
Ow 26.7575 21.6647 17.1294
H 26.4033 22.3023 16.5095
H 26.0991 21.6122 17.8222
Ow 10.3415 22.7243 25.2868
H 10.0834 21.8882 24.8989
H 10.1436 22.628 26.2183
Ow 1.75585 1.03742 11.1546
H 2.03882 1.17072 12.0593
H 0.899895 0.615777 11.2305
Ow 9.09368 10.225 1.23687
H 8.9898 10.6826 0.402562
H 8.22153 9.88298 1.43321
Ow 4.42703 6.73281 11.8065
H 3.93856 5.94588 11.565
H 4.18208 6.89731 12.7171
Ow 25.9627 23.0523 0.687289
H 25.4517 22.649 1.38907
H 26.5348 23.6756 1.13477
Ow 25.119 30.5823 28.2921
H 24.9726 29.8707 27.6688
H 25.7623 31.1475 27.8643
Ow 6.84512 8.58112 1.65461
H 7.08719 8.35468 0.756607
H 6.72155 7.73752 2.08967
Ow 3.35561 14.5232 21.2998
H 3.95338 15.059 20.7784
H 3.01329 13.8762 20.6831
Ow 26.6352 5.55848 10.0026
H 25.9126 6.18603 10.0178
H 26.2514 4.74275 10.3243
Ow 13.1366 4.8433 7.86565
H 12.194 4.75059 7.72743
H 13.4404 3.9549 8.0519
Ow 1.72409 23.1655 24.0741
H 0.909225 22.9646 24.5343
H 1.44999 23.6781 23.3136
Ow 7.14134 0.731595 28.3895
H 6.88203 1.65146 28.4426
H 7.20776 0.447979 29.3013
Ow 7.67099 15.9953 26.5638
H 6.7495 15.9598 26.8203
H 8.11837 15.4348 27.1977
Ow 27.2473 30.3016 8.91961
H 26.3979 29.8866 9.06921
H 27.1329 31.2007 9.2277
Ow 20.5169 11.9947 7.71685
H 20.9246 11.1983 7.37651
H 19.5835 11.7869 7.75972
Ow 28.4656 28.9589 25.1729
H 27.9062 29.712 25.3626
H 28.7339 28.6362 26.0332
Ow 29.2278 18.4383 21.4033
H 29.297 18.1199 20.5033
H 28.9065 17.6858 21.9
Ow 22.0984 3.8816 5.16808
H 22.7701 3.48632 4.61245
H 21.433 4.19389 4.55492
Ow 6.30772 14.828 16.3145
H 6.64477 15.5645 16.8246
H 5.92179 14.2418 16.9654
Ow 2.55497 28.3653 26.3194
H 1.79049 28.3029 26.892
H 2.28777 28.9703 25.6275
Ow 6.64008 10.4772 7.08265
H 7.02477 10.7238 6.24158
H 6.48376 9.53584 7.00825
Ow 3.48665 22.0629 28.5251
H 3.27163 22.7496 27.894
H 2.95866 21.3125 28.2525
Ow 20.1531 14.2494 18.3513
H 19.7553 13.4149 18.5996
H 19.4737 14.6991 17.8489
Ow 28.2274 30.1187 1.98708
H 28.6102 29.7695 2.79194
H 28.3594 29.4273 1.33851
Ow 16.3875 2.20452 18.9825
H 16.8881 3.02035 18.9868
H 16.5298 1.84019 18.1089
Ow 21.2154 7.03513 3.13196
H 22.0995 6.702 2.97849
H 20.7342 6.28591 3.4832
Ow 7.54545 4.44309 9.91943
H 6.87637 3.78236 9.74063
H 7.81263 4.27562 10.8232
Ow 24.524 21.1547 14.4634
H 23.8867 20.4449 14.5418
H 25.2143 20.7969 13.9051
Ow 2.73964 23.6468 14.8627
H 3.55756 23.2087 15.0975
H 2.13582 23.4229 15.5708
Ow 17.4886 17.5652 21.6799
H 17.4395 16.9201 20.9745
H 16.6366 17.5124 22.1131
Ow 24.2432 11.559 3.4958
H 24.8504 11.9676 2.8789
H 24.671 11.6469 4.34752
Ow 11.7319 24.7574 2.38433
H 12.2244 24.1577 1.82417
H 11.398 24.2057 3.09169
Ow 20.6384 7.94286 18.0965
H 20.0744 8.27879 18.7932
H 21.0476 8.72294 17.722
Ow 26.3098 2.87423 28.8216
H 25.3805 3.05718 28.9596
H 26.342 2.41534 27.9822
Ow 23.9049 6.28549 31.2444
H 23.0954 5.96631 30.8458
H 23.8878 7.23128 31.0981
Ow 31.2229 0.449039 17.2032
H 30.7185 1.02691 17.7758
H 30.5633 31.4427 16.7556
Ow 1.90581 12.5262 19.8017
H 1.35102 12.1516 19.1175
H 2.78178 12.1909 19.6107
Ow 23.3855 20.66 22.275
H 23.3469 19.9402 21.6453
H 24.321 20.8027 22.4195
Ow 28.7759 22.4968 7.90123
H 28.0434 21.9114 7.70904
H 28.6765 22.7089 8.8293
Ow 27.9321 1.00046 19.6596
H 27.6776 0.280574 19.082
H 27.3037 0.963108 20.3806
Ow 13.8349 19.6193 22.8053
H 13.5632 19.823 23.7002
H 14.504 20.2732 22.6028
Ow 13.2412 26.6869 11.2576
H 12.8684 26.2704 12.0346
H 14.0657 27.0668 11.5612
Ow 2.42667 10.9214 0.409986
H 2.39404 10.728 1.34694
H 1.80443 10.3096 31.5401
Ow 10.1395 26.9223 17.3327
H 10.2482 25.9724 17.2879
H 9.45372 27.1159 16.6936
Ow 3.18674 5.42677 19.5114
H 3.57024 5.8447 20.2824
H 2.2702 5.70265 19.5198
Ow 17.7342 29.0229 9.36767
H 17.0312 28.4613 9.6943
H 17.6461 29.8336 9.86879
Ow 7.90117 16.3856 12.9177
H 8.23857 16.4915 13.8072
H 8.11799 17.2083 12.4791
Ow 26.0484 24.489 3.51663
H 26.1907 25.4342 3.46579
H 26.036 24.2983 4.45454
Ow 8.87417 18.3918 4.89134
H 9.74511 18.3103 5.2798
H 8.67989 19.3281 4.93166
Ow 5.87909 28.0916 26.0884
H 6.11053 29.0154 25.9927
H 4.94524 28.0988 26.2988
Ow 9.20893 19.0353 12.5434
H 9.69799 19.1445 13.3589
H 9.10033 19.9251 12.2077
Ow 12.8944 21.7334 9.65064
H 12.7923 21.3932 10.5395
H 13.5065 22.4637 9.74207
Ow 28.0244 18.1285 31.5359
H 27.769 17.5537 0.734024
H 27.8185 19.01 0.323437
Ow 12.0585 10.7847 12.8635
H 11.3384 10.1971 13.0924
H 12.7934 10.2013 12.6742
Ow 20.0923 0.857786 19.4673
H 19.6655 0.791356 18.6131
H 20.4561 1.74293 19.4856
Ow 11.1866 27.5523 5.09444
H 11.971 28.0209 4.80939
H 11.5045 26.6871 5.35261
Ow 10.4793 7.1853 18.3887
H 10.0656 7.06559 19.2436
H 11.2374 7.74248 18.5649
Ow 1.60705 20.6977 5.49706
H 2.298 20.6515 4.83627
H 1.15309 21.5199 5.31243
Ow 23.2832 18.4797 20.4137
H 23.1834 18.6474 19.4766
H 23.8223 17.6902 20.4601
Ow 3.16779 14.6281 1.18156
H 2.52502 14.0548 1.59909
H 2.99396 14.5411 0.244321
Ow 18.2717 6.75763 25.4674
H 18.172 6.70838 26.4181
H 18.2945 5.84461 25.1809
Ow 9.91043 14.5603 2.07672
H 10.5277 14.222 1.4282
H 10.3604 15.3087 2.46872
Ow 31.2986 19.9444 14.4356
H 31.0947 19.3602 15.166
H 30.5683 19.832 13.8271
Ow 11.8595 6.27991 5.63615
H 11.1504 6.82025 5.98429
H 11.4345 5.70955 4.9956
Ow 19.0973 25.9002 14.0293
H 18.8945 26.5901 14.661
H 19.6471 25.2848 14.5143
Ow 29.46 22.9254 14.4487
H 29.5819 22.1671 15.0198
H 30.2963 23.0194 13.9929
Ow 25.4456 12.1324 6.06582
H 24.9993 12.0508 6.90865
H 25.8538 12.9978 6.09325
Ow 9.5412 9.78251 8.97784
H 9.39289 9.41476 8.10659
H 9.32575 9.06955 9.57907
Ow 23.6807 3.02526 29.8687
H 23.7285 3.40821 30.7446
H 22.9694 3.49939 29.438
Ow 3.53994 10.5349 14.8902
H 3.76545 11.1889 15.5518
H 4.19204 9.84354 15.0041
Ow 17.8355 13.5127 21.8186
H 18.3393 14.3041 22.0084
H 18.4332 12.7932 22.0215
Ow 14.7565 5.51389 24.0394
H 15.2086 6.30607 23.7492
H 13.9539 5.83308 24.4519
Ow 22.6296 7.15594 23.292
H 22.6564 7.93578 23.8464
H 21.7416 7.14567 22.935
Ow 13.2912 22.1891 23.7779
H 13.9326 22.8593 23.5418
H 12.5002 22.6811 23.9982
Ow 4.26319 23.8019 11.3383
H 4.08267 24.5592 11.8952
H 5.0819 23.4425 11.6799
Ow 12.6327 25.2142 13.7909
H 11.7056 24.9867 13.8593
H 12.7138 26.038 14.2716
Ow 5.92366 15.7489 20.2549
H 5.98813 14.9049 19.8081
H 6.51349 16.3241 19.7677
Ow 14.9673 17.1667 22.5979
H 14.6176 16.7554 23.3883
H 14.5802 18.042 22.5915
Ow 10.7166 5.84169 11.702
H 11.4288 5.24921 11.4613
H 10.6737 6.47058 10.9817
Ow 28.1138 27.9741 0.195109
H 27.3901 28.1552 31.1188
H 28.8952 27.9995 31.1663
Ow 1.52206 22.3736 20.6536
H 1.34147 23.288 20.8715
H 2.19026 22.4173 19.9697
Ow 26.3973 28.5777 29.9417
H 25.9751 29.3736 29.6182
H 27.236 28.5468 29.4814
Ow 26.5394 22.0576 9.45425
H 26.1481 22.6779 8.8392
H 26.1674 21.2102 9.20977
Ow 19.3827 11.6431 0.954793
H 20.2986 11.9083 1.03866
H 19.3991 10.9178 0.330457
Ow 30.6041 11.03 31.058
H 30.6929 11.6029 0.296217
H 30.6071 10.1445 31.4221
Ow 15.0088 24.788 20.2345
H 15.2044 25.7117 20.3918
H 15.777 24.4558 19.7701
Ow 31.5982 7.57594 17.1362
H 0.40348 8.43996 16.8883
H 0.289667 7.49514 18.0656
Ow 26.4728 12.7895 23.2191
H 27.1827 12.9524 22.5981
H 26.2677 13.6516 23.5809
Ow 12.8411 31.0294 20.7365
H 12.7365 30.414 20.0109
H 11.9986 31.4803 20.7922
Ow 0.906403 16.1661 26.3748
H 1.52939 15.4403 26.34
H 0.294348 15.9917 25.6598
Ow 9.00172 3.87463 20.4579
H 8.43985 3.29834 19.9398
H 8.42399 4.58442 20.7383
Ow 4.2893 11.9619 26.3372
H 4.98145 12.4574 25.8991
H 4.26341 11.1248 25.8738
Ow 19.6186 22.0449 20.571
H 19.4489 21.1158 20.4158
H 20.1975 22.306 19.8548
Ow 11.2449 26.1745 26.3038
H 11.1272 25.8712 27.204
H 12.1833 26.3482 26.2299
Ow 22.2732 20.9967 25.4441
H 22.7181 20.1675 25.2684
H 21.7515 21.1601 24.6584
Ow 13.2964 20.5731 12.1211
H 12.8866 19.764 12.427
H 13.8489 20.8531 12.8509
Ow 16.6997 24.9683 11.2215
H 17.6213 24.711 11.1992
H 16.3572 24.5656 12.0195
Ow 15.7509 20.6917 8.29188
H 16.5851 20.2232 8.26426
H 15.37 20.454 9.13724
Ow 21.6715 27.0572 1.03476
H 21.0215 26.7759 0.390801
H 22.3697 27.4536 0.513637
Ow 21.5816 13.7058 16.0642
H 22.4129 14.1787 16.0245
H 21.1908 13.9766 16.8949
Ow 22.8957 0.830822 1.48928
H 23.0672 0.701216 0.556544
H 21.9974 0.524419 1.61295
Ow 0.706742 24.6685 21.8993
H 31.5716 25.092 22.4499
H 1.08155 25.3815 21.3822
Ow 25.2337 24.7364 10.6408
H 24.4757 24.4697 10.1206
H 25.5755 25.5078 10.1889
Ow 0.625927 15.9463 7.1776
H 31.5862 15.8149 7.94051
H 0.567768 16.8842 6.99527
Ow 13.8993 8.96386 21.5621
H 14.5337 8.24796 21.5282
H 13.1312 8.58382 21.9886
Ow 21.9619 14.2096 12.2772
H 22.3171 14.5275 13.1073
H 21.3591 14.8975 11.995
Ow 11.1729 29.0952 8.51005
H 11.7002 28.2983 8.45402
H 11.5329 29.6692 7.83387
Ow 22.0895 24.7998 21.85
H 21.9621 23.9224 22.2108
H 22.6429 24.6649 21.0808
Ow 30.2649 8.62324 1.00941
H 30.4823 7.69234 1.05813
H 30.0937 8.87751 1.91619
Ow 15.3422 3.04464 23.1024
H 15.0453 3.92656 23.3266
H 15.5168 2.62834 23.9464
Ow 5.37514 8.83024 10.0858
H 5.62272 9.654 9.66585
H 6.12669 8.60512 10.6342
Ow 7.45329 19.8955 28.4454
H 6.88171 20.6409 28.6293
H 6.99901 19.4086 27.7578
Ow 28.7985 16.3038 13.9015
H 27.9379 16.6091 14.1882
H 28.6549 15.3954 13.6358
Ow 1.75784 4.24533 23.9625
H 1.13786 4.92157 23.6895
H 2.25545 4.64894 24.6736
Ow 0.926532 29.6245 21.4588
H 1.75447 30.1048 21.466
H 0.342096 30.1618 20.924
Ow 15.8247 2.76971 6.39965
H 15.1455 2.39254 6.95877
H 16.3291 3.33616 6.98345
Ow 14.5822 20.7293 18.7918
H 15.146 20.0878 19.2239
H 15.0709 20.9914 18.0116
Ow 30.5678 13.3652 26.6318
H 29.6739 13.2339 26.9483
H 31.0313 13.751 27.3751
Ow 21.4243 21.0242 16.1444
H 20.5647 20.7402 15.8337
H 21.8606 21.3662 15.3641
Ow 22.6782 28.4445 11.6743
H 22.1622 27.6389 11.7065
H 23.3308 28.3393 12.3666
Ow 27.6025 11.8863 13.9379
H 27.019 11.4982 13.286
H 27.425 12.8257 13.8899
Ow 14.5812 13.2017 18.6598
H 14.6301 13.5343 19.556
H 14.2272 12.3171 18.7511
Ow 18.9757 23.9185 9.96351
H 19.4878 23.9612 9.15604
H 19.17 23.054 10.3256
Ow 14.6059 31.1371 25.7866
H 15.4765 30.8956 25.47
H 14.1293 30.3084 25.8333
Ow 4.9066 26.3024 29.6801
H 4.03423 26.0037 29.4233
H 4.9637 27.1959 29.3413
Ow 3.05794 30.1224 3.63883
H 3.65881 30.1477 4.38349
H 2.77629 29.2088 3.58851
Ow 22.062 28.1234 27.77
H 22.069 27.1763 27.9086
H 21.1343 28.3488 27.7005
Ow 4.40661 25.7669 3.19038
H 3.92416 24.9464 3.08883
H 3.79967 26.4415 2.88549
Ow 23.2571 0.471254 29.947
H 23.598 1.34429 29.7525
H 23.8911 31.3961 29.5519
Ow 26.0637 0.101059 22.0297
H 25.3307 0.672872 22.2576
H 26.3697 31.2805 22.8689
Ow 16.7204 10.1518 22.6157
H 17.6615 10.2465 22.4689
H 16.456 10.9786 23.019
Ow 0.671469 8.44658 25.9522
H 1.61025 8.55287 25.7986
H 0.408736 7.74489 25.3566
Ow 29.8827 10.0373 23.0561
H 29.2036 9.60905 23.5772
H 30.1952 9.35521 22.4618
Ow 20.8533 24.2848 15.9489
H 20.9554 24.1431 16.89
H 21.6953 24.6425 15.6672
Ow 23.2845 7.7002 20.2296
H 22.9739 7.48291 21.1086
H 24.1914 7.39476 20.2132
Ow 22.9689 28.0355 15.0855
H 22.1943 28.5976 15.1
H 23.5545 28.4501 14.452
Ow 7.14836 26.5849 16.0781
H 6.20928 26.6148 15.8953
H 7.28519 25.7326 16.4917
Ow 9.88919 29.2014 18.9793
H 9.15542 29.8083 19.0764
H 10.3408 29.4955 18.1882
Ow 17.7309 5.63916 5.15811
H 16.9128 5.43278 5.61001
H 17.9525 6.52207 5.45408
Ow 9.93986 20.9265 21.5178
H 9.40499 20.3399 20.9831
H 10.7996 20.9179 21.097
Ow 14.1914 29.8573 14.3941
H 14.2719 30.5388 13.7266
H 14.4688 30.2822 15.2056
Ow 2.92002 0.0877896 20.8242
H 3.38968 31.489 21.6493
H 2.77983 1.03282 20.7657
Ow 28.7534 3.00639 8.35759
H 28.2285 2.47508 8.95628
H 29.5535 2.49818 8.22433
Ow 10.4758 7.60229 2.94962
H 11.0293 8.15253 3.50382
H 9.68661 8.12423 2.80501
Ow 0.758628 20.3688 9.38561
H 0.386744 21.066 9.92583
H 1.69644 20.3922 9.5758
Ow 14.8298 2.31162 3.19112
H 15.5346 1.98232 2.63345
H 14.7701 1.67511 3.90351
Ow 7.56845 15.9447 1.32905
H 8.29862 15.3715 1.56235
H 6.90068 15.7643 1.9909
Ow 9.6718 1.07793 21.4073
H 9.59437 0.901213 22.3449
H 8.9669 0.56816 21.008
Ow 5.74752 13.034 1.69412
H 4.87391 13.4237 1.66109
H 5.67923 12.3479 2.35803
Ow 1.48329 9.77942 16.1887
H 1.91567 9.7912 17.0426
H 2.14676 10.1027 15.5793
Ow 4.8661 24.8731 6.81779
H 5.37477 24.4424 6.13083
H 4.92323 24.2796 7.56659
Ow 4.8307 27.3405 5.49057
H 5.20336 26.5505 5.88214
H 4.66362 27.1006 4.5791
Ow 11.1964 30.7508 11.3358
H 12.1281 30.8622 11.5245
H 11.1694 30.0957 10.6384
Ow 23.9293 25.8805 23.6563
H 23.4061 25.6103 22.9017
H 24.5069 26.5635 23.3158
Ow 14.2641 1.72339 28.6106
H 14.9689 1.8937 29.2355
H 13.9459 2.59211 28.3651
Ow 0.835054 16.6271 1.94307
H 0.313464 15.9167 2.31632
H 1.69915 16.2409 1.80022
Ow 23.4924 19.5914 10.7367
H 23.5307 18.7265 11.1449
H 23.0188 19.4492 9.91717
Ow 19.718 26.0798 30.7582
H 19.3764 26.9579 30.9272
H 18.9606 25.5037 30.8615
Ow 16.9878 28.0174 27.5074
H 16.7482 27.9416 28.431
H 16.9134 27.1262 27.1662
Ow 0.113062 25.695 4.76765
H 0.266792 26.6392 4.73518
H 0.896072 25.3387 5.18731
Ow 7.80791 20.7207 5.04431
H 7.64634 20.8763 4.11378
H 8.22593 21.5246 5.35298
Ow 27.2733 23.0154 29.752
H 26.652 22.9535 30.4775
H 26.767 23.3956 29.0342
Ow 5.73174 16.9849 11.0447
H 6.4793 16.6243 11.5215
H 4.97189 16.752 11.5782
Ow 31.0428 30.3475 0.251609
H 30.8696 29.7985 1.01636
H 0.408829 30.1147 31.509
Ow 12.4166 13.7861 22.5386
H 12.5836 13.179 23.2594
H 11.9674 13.2577 21.8789
Ow 3.43658 31.4796 26.8604
H 3.42745 0.829334 27.2524
H 4.1065 31.5296 26.1786
Ow 10.4921 31.0699 4.90174
H 11.0364 30.9579 4.12218
H 11.1124 31.0618 5.63057
Ow 7.04977 29.6711 13.1441
H 7.98687 29.5817 13.3174
H 6.92707 29.2789 12.2796
Ow 5.79462 1.51739 16.9617
H 6.48616 1.99453 17.4203
H 5.46862 0.889159 17.6062
Ow 11.4112 20.0567 17.8348
H 12.03 20.0783 18.5647
H 11.7448 20.7082 17.218
Ow 2.65273 2.3688 29.8526
H 2.43504 2.62402 30.7491
H 2.54997 3.17228 29.3427
Ow 2.96101 21.3236 1.05296
H 2.34735 21.4127 0.323795
H 3.75375 21.7699 0.755392
Ow 6.62975 1.35373 21.0028
H 6.14801 2.13395 20.7283
H 6.72755 1.45299 21.9498
Ow 27.2754 23.46 12.5048
H 26.9599 22.56 12.4229
H 28.107 23.3812 12.9721
Ow 9.79318 8.18254 6.39761
H 8.99318 8.01819 5.89842
H 10.3201 8.74366 5.82862
Ow 11.5369 19.3001 0.553346
H 10.9555 18.8873 1.1919
H 12.2444 18.6675 0.428867
Ow 5.9067 19.5539 20.2736
H 6.81153 19.3831 20.0122
H 5.97812 19.9441 21.1447
Ow 19.407 29.1196 27.7604
H 18.5752 28.6863 27.952
H 19.1573 29.9787 27.4203
Ow 16.3794 7.39776 16.7839
H 16.4518 7.82631 17.6367
H 16.126 6.49764 16.9883
Ow 13.1217 27.0473 8.62124
H 12.5326 26.3217 8.41499
H 13.1147 27.0979 9.57702
Ow 6.61659 28.8945 10.5691
H 7.57178 28.9128 10.6289
H 6.37342 28.0216 10.8774
Ow 29.8981 17.2506 19.2083
H 30.7388 16.8989 19.5012
H 29.2902 16.5153 19.2858
Ow 1.29332 5.28731 30.6453
H 1.7042 5.22097 29.7833
H 1.78278 4.67336 31.1925
Ow 0.745929 3.75277 10.301
H 0.510848 4.02118 11.1892
H 0.663446 2.79918 10.3087
Ow 21.0331 25.7869 6.25
H 20.7969 24.916 6.56932
H 21.0761 26.328 7.03836
Ow 12.0303 0.822965 27.0872
H 12.4697 1.02864 27.9123
H 12.7152 0.438696 26.54
Ow 26.8535 5.53589 2.7675
H 26.8254 5.32232 3.70013
H 25.966 5.36059 2.45431
Ow 23.6455 6.28522 14.9144
H 22.7494 6.40766 15.228
H 24.1463 6.06361 15.6994
Ow 31.5829 12.0959 17.3691
H 0.248138 11.259 16.9445
H 30.8359 11.9129 17.9389
Ow 6.49911 12.2947 21.7577
H 5.8996 12.2865 21.0115
H 6.92473 11.4377 21.733
Ow 20.4118 19.0074 18.5641
H 21.0798 19.2291 17.9154
H 19.7158 18.5879 18.0582
Ow 14.2731 14.8531 11.7541
H 13.4988 14.62 11.242
H 14.4386 15.7701 11.535
Ow 31.1224 14.6442 28.9981
H 31.5688 15.4817 29.1225
H 30.5453 14.5646 29.7576
Ow 11.8739 4.8971 17.9825
H 12.7023 5.37227 18.0469
H 11.2357 5.46824 18.41
Ow 28.8962 4.72847 0.91959
H 28.2599 5.24084 1.41834
H 29.7469 5.07559 1.18783
Ow 1.6361 8.68914 30.7331
H 2.37961 8.47052 30.1713
H 0.880819 8.68211 30.1452
Ow 22.538 13.2473 23.2508
H 23.141 13.4931 23.9525
H 21.9658 12.5894 23.6456
Ow 4.14287 30.5339 23.042
H 3.42719 30.6689 23.6631
H 4.88452 31.0025 23.425
Ow 25.2625 31.1691 2.54215
H 26.1488 31.5101 2.42196
H 24.7151 0.197977 1.98398
Ow 4.97681 30.1637 5.89863
H 4.79413 30.4263 6.8008
H 4.89021 29.2105 5.90387
Ow 7.64462 12.5787 15.5746
H 7.20087 12.0101 16.2039
H 7.10728 13.3703 15.546
Ow 17.9946 18.8402 8.09657
H 17.7114 17.9592 7.8521
H 18.8694 18.7174 8.46528
Ow 11.5387 18.3539 21.7141
H 12.3201 18.9059 21.7425
H 10.9651 18.7824 21.0788
Ow 29.3749 2.24809 11.9758
H 29.4738 2.33949 12.9234
H 28.4718 1.95462 11.8559
Ow 4.12975 27.0686 9.34499