LAMMPS (23 Jun 2022 - Update 1)
Reading data file ...
  orthogonal box = (0 0 0) to (31.689281 31.689281 31.689281)
  2 by 4 by 4 MPI processor grid
  reading atoms ...
  3162 atoms
  scanning bonds ...
  4 = max bonds/atom
  scanning angles ...
  6 = max angles/atom
  reading bonds ...
  2108 bonds
  reading angles ...
  1108 angles
Finding 1-2 1-3 1-4 neighbors ...
  special bond factors lj:    0        0        0       
  special bond factors coul:  0        0        0       
     4 = max # of 1-2 neighbors
     3 = max # of 1-3 neighbors
     3 = max # of 1-4 neighbors
     4 = max # of special neighbors
  special bonds CPU = 9.564 seconds
  read_data CPU = 9.609 seconds
Setting atom values ...
  1000 settings made for charge
Setting atom values ...
  2000 settings made for charge
Setting atom values ...
  36 settings made for charge
Setting atom values ...
  36 settings made for charge
Setting atom values ...
  18 settings made for charge
Setting atom values ...
  72 settings made for charge
1000 atoms in group wat
36 atoms in group Li
18 atoms in group S
  create bodies CPU = 0.001 seconds
  1054 rigid bodies with 3162 atoms
  1.4900082 = max distance from body owner to body atom
PPPM initialization ...
  extracting TIP4P info from pair style
  using 12-bit tables for long-range coulomb (../kspace.cpp:342)
  G vector (1/distance) = 0.31119582
  grid = 30 30 30
  stencil order = 5
  estimated absolute RMS force accuracy = 0.0035544154
  estimated relative force accuracy = 1.0704016e-05
  using double precision KISS FFT
  3d grid and FFT values/proc = 4950 960
Generated 0 of 15 mixed pair_coeff terms from arithmetic mixing rule
Neighbor list info ...
  update every 1 steps, delay 0 steps, check yes
  max neighbors/atom: 2000, page size: 100000
  master list distance cutoff = 12.3092
  ghost atom cutoff = 12.3092
  binsize = 6.1546, bins = 6 6 6
  1 neighbor lists, perpetual/occasional/extra = 1 0 0
  (1) pair lj/cut/tip4p/long, perpetual
      attributes: half, newton on
      pair build: half/bin/newton
      stencil: half/bin/3d
      bin: standard
Setting up Verlet run ...
  Unit style    : real
  Current step  : 0
  Time step     : 0.001
Per MPI rank memory allocation (min/avg/max) = 15.41 | 15.45 | 15.48 Mbytes
   Step        Density          Temp          Press          TotEng    
         0   1.0433267      322.64451     -6433686.5      6100.152     
      1000   1.042778       341.14001      73329.46       6081.9928    
      2000   1.0409152      395.4373       70841.352      6018.6669    
      3000   1.0377883      481.17935      66506.413      5903.9005    
      4000   1.0334843      590.27546      60229.227      5721.73      
      5000   1.0281285      714.22317      52592.345      5464.9636    
      6000   1.0218725      848.12463      45436.972      5153.8067    
      7000   1.0148668      982.96982      38697.673      4784.2255    
      8000   1.0072603      1111.3657      31138.202      4361.9995    
      9000   0.99921419     1225.5154      24318.094      3886.3014    
     10000   0.99088028     1321.1934      18419.004      3371.5349    
Loop time of 28.2541 on 32 procs for 10000 steps with 3162 atoms

Performance: 0.031 ns/day, 784.837 hours/ns, 353.930 timesteps/s
99.5% CPU use with 32 MPI tasks x no OpenMP threads

MPI task timing breakdown:
Section |  min time  |  avg time  |  max time  |%varavg| %total
---------------------------------------------------------------
Pair    | 9.5508     | 11.622     | 13.886     |  35.6 | 41.14
Bond    | 0.034827   | 0.041939   | 0.053882   |   2.2 |  0.15
Kspace  | 5.3323     | 7.6953     | 9.7017     |  43.7 | 27.24
Neigh   | 0.002214   | 0.0024169  | 0.0026161  |   0.3 |  0.01
Comm    | 1.3975     | 1.6308     | 1.8        |   9.8 |  5.77
Output  | 0.00069227 | 0.00071969 | 0.00098467 |   0.0 |  0.00
Modify  | 6.5082     | 6.8485     | 7.0882     |   6.4 | 24.24
Other   |            | 0.412      |            |       |  1.46

Nlocal:        98.8125 ave         110 max          84 min
Histogram: 2 0 4 4 5 2 4 1 7 3
Nghost:        4083.06 ave        4140 max        4039 min
Histogram: 4 2 3 4 8 2 4 3 1 1
Neighs:        36651.1 ave       43222 max       30082 min
Histogram: 1 5 1 8 3 1 5 2 3 3

Total # of neighbors = 1172836
Ave neighs/atom = 370.91588
Ave special neighs/atom = 2.0341556
Neighbor list builds = 2
Dangerous builds = 0
PPPM initialization ...
  extracting TIP4P info from pair style
  using 12-bit tables for long-range coulomb (../kspace.cpp:342)
  G vector (1/distance) = 0.30995734
  grid = 30 30 30
  stencil order = 5
  estimated absolute RMS force accuracy = 0.0037411744
  estimated relative force accuracy = 1.1266436e-05
  using double precision KISS FFT
  3d grid and FFT values/proc = 4950 960
Generated 0 of 15 mixed pair_coeff terms from arithmetic mixing rule
Setting up Verlet run ...
  Unit style    : real
  Current step  : 10000
  Time step     : 0.01
Per MPI rank memory allocation (min/avg/max) = 15.41 | 15.45 | 15.48 Mbytes
   Step        Density          Temp          Press          TotEng    
     10000   0.99088028     1321.1934      6821.1046      3371.5362    
     11000   0.9138682      1255.887      -8100.7125     -1749.2222    
     12000   0.86802756     915.41292     -10517.374     -4533.7279    
     13000   0.84793145     772.8467      -10043.339     -6327.52      
     14000   0.84710486     638.23424     -8447.2725     -7628.6809    
     15000   0.86139212     586.376       -7856.1881     -8632.6549    
     16000   0.88872643     545.4443      -6005.8861     -9534.5202    
     17000   0.9254147      508.25237     -3658.4436     -10291.783    
     18000   0.96567303     495.1969      -507.56865     -10892.977    
     19000   1.0035098      480.21925      1490.2953     -11424.491    
     20000   1.0358801      469.78438      2050.2641     -11890.611    
Loop time of 26.4066 on 32 procs for 10000 steps with 3162 atoms

Performance: 0.327 ns/day, 73.352 hours/ns, 378.693 timesteps/s
99.5% CPU use with 32 MPI tasks x no OpenMP threads

MPI task timing breakdown:
Section |  min time  |  avg time  |  max time  |%varavg| %total
---------------------------------------------------------------
Pair    | 8.5181     | 10.324     | 12.533     |  36.1 | 39.10
Bond    | 0.036224   | 0.042068   | 0.050527   |   1.8 |  0.16
Kspace  | 5.4763     | 7.7645     | 9.5382     |  41.6 | 29.40
Neigh   | 0.014965   | 0.016181   | 0.01737    |   0.8 |  0.06
Comm    | 1.2806     | 1.4965     | 1.6707     |   9.4 |  5.67
Output  | 0.0005988  | 0.00061979 | 0.00087085 |   0.0 |  0.00
Modify  | 5.9949     | 6.3404     | 6.5931     |   6.7 | 24.01
Other   |            | 0.4225     |            |       |  1.60

Nlocal:        98.8125 ave         115 max          87 min
Histogram: 2 8 2 4 2 5 4 1 2 2
Nghost:        4127.59 ave        4152 max        4110 min
Histogram: 3 4 4 5 4 4 3 3 1 1
Neighs:        37481.9 ave       47029 max       31839 min
Histogram: 5 6 4 4 3 3 4 1 1 1

Total # of neighbors = 1199420
Ave neighs/atom = 379.32321
Ave special neighs/atom = 2.0341556
Neighbor list builds = 14
Dangerous builds = 0
PPPM initialization ...
  extracting TIP4P info from pair style
  using 12-bit tables for long-range coulomb (../kspace.cpp:342)
  G vector (1/distance) = 0.31102422
  grid = 30 30 30
  stencil order = 5
  estimated absolute RMS force accuracy = 0.0035797692
  estimated relative force accuracy = 1.0780368e-05
  using double precision KISS FFT
  3d grid and FFT values/proc = 4950 960
Generated 0 of 15 mixed pair_coeff terms from arithmetic mixing rule
Setting up Verlet run ...
  Unit style    : real
  Current step  : 20000
  Time step     : 0.1
Per MPI rank memory allocation (min/avg/max) = 15.41 | 15.45 | 15.48 Mbytes
   Step        Density          Temp          Press          TotEng    
     20000   1.0358801      469.78438      3544.6003     -11890.61     
     21000   1.1443751      345.14679      965.02377     -14886.745    
     22000   1.1241605      332.78639     -1867.4304     -15557.317    
     23000   1.1205968      317.84793     -720.96083     -15944.83     
     24000   1.1086736      322.74974      1159.8857     -16021.85     
     25000   1.0950641      330.41337      625.56564     -15921.955    
     26000   1.0888745      318.85166     -103.49735     -16098.311    
     27000   1.0971369      328.8233       589.72067     -16143.643    
     28000   1.0845568      321.02863     -637.3857      -16189.059    
     29000   1.0823436      331.64398      440.57114     -16088.838    
     30000   1.0863464      317.34012      195.18399     -16231.236    
Loop time of 29.5569 on 32 procs for 10000 steps with 3162 atoms

Performance: 2.923 ns/day, 8.210 hours/ns, 338.331 timesteps/s
99.5% CPU use with 32 MPI tasks x no OpenMP threads

MPI task timing breakdown:
Section |  min time  |  avg time  |  max time  |%varavg| %total
---------------------------------------------------------------
Pair    | 10.822     | 12.656     | 14.184     |  19.5 | 42.82
Bond    | 0.036154   | 0.042245   | 0.04871    |   1.4 |  0.14
Kspace  | 5.8219     | 7.4577     | 9.2581     |  25.9 | 25.23
Neigh   | 0.11001    | 0.11957    | 0.12833    |   2.3 |  0.40
Comm    | 1.468      | 1.7037     | 1.8834     |  10.0 |  5.76
Output  | 0.00050785 | 0.00053595 | 0.0009818  |   0.0 |  0.00
Modify  | 6.8126     | 7.1551     | 7.4087     |   6.2 | 24.21
Other   |            | 0.4224     |            |       |  1.43

Nlocal:        98.8125 ave         111 max          86 min
Histogram: 2 0 1 4 8 8 3 3 1 2
Nghost:        4283.66 ave        4320 max        4245 min
Histogram: 2 1 4 3 6 2 6 1 5 2
Neighs:        39887.9 ave       46883 max       33712 min
Histogram: 1 2 2 6 9 6 2 1 1 2

Total # of neighbors = 1276414
Ave neighs/atom = 403.67299
Ave special neighs/atom = 2.0341556
Neighbor list builds = 94
Dangerous builds = 0
PPPM initialization ...
  extracting TIP4P info from pair style
  using 12-bit tables for long-range coulomb (../kspace.cpp:342)
  G vector (1/distance) = 0.31216118
  grid = 30 30 30
  stencil order = 5
  estimated absolute RMS force accuracy = 0.0034148215
  estimated relative force accuracy = 1.0283634e-05
  using double precision KISS FFT
  3d grid and FFT values/proc = 4950 960
Generated 0 of 15 mixed pair_coeff terms from arithmetic mixing rule
Setting up Verlet run ...
  Unit style    : real
  Current step  : 30000
  Time step     : 0.2
Per MPI rank memory allocation (min/avg/max) = 15.41 | 15.45 | 15.48 Mbytes
   Step        Density          Temp          Press          TotEng    
     30000   1.0863464      317.34012      1068.0417     -16231.237    
     31000   1.0714785      319.3387      -804.33568     -16130.298    
     32000   1.075145       324.1866       76.612352     -16145.634    
     33000   1.078584       328.41054      264.43312     -16119.907    
     34000   1.0718056      312.75918      22.526517     -16344.223    
     35000   1.0714724      313.28456      308.26286     -16324.234    
     36000   1.0622455      328.03648     -1218.3899     -16181.908    
     37000   1.0704608      328.3968       155.0982      -16184.235    
     38000   1.0750519      326.69313     -197.87917     -16212.176    
     39000   1.0801479      306.69356     -218.99619     -16447.612    
     40000   1.0753343      315.0044      -526.0799      -16287.162    
Loop time of 29.7946 on 32 procs for 10000 steps with 3162 atoms

Performance: 5.800 ns/day, 4.138 hours/ns, 335.631 timesteps/s
99.5% CPU use with 32 MPI tasks x no OpenMP threads

MPI task timing breakdown:
Section |  min time  |  avg time  |  max time  |%varavg| %total
---------------------------------------------------------------
Pair    | 10.704     | 12.558     | 14.677     |  25.8 | 42.15
Bond    | 0.036154   | 0.04231    | 0.04914    |   1.4 |  0.14
Kspace  | 5.5864     | 7.6147     | 9.4286     |  32.8 | 25.56
Neigh   | 0.26048    | 0.28216    | 0.30322    |   3.6 |  0.95
Comm    | 1.4605     | 1.6949     | 1.8824     |  10.1 |  5.69
Output  | 0.00052495 | 0.0005439  | 0.00077522 |   0.0 |  0.00
Modify  | 6.8574     | 7.1878     | 7.4565     |   6.1 | 24.12
Other   |            | 0.4145     |            |       |  1.39

Nlocal:        98.8125 ave         115 max          89 min
Histogram: 2 8 2 5 5 6 2 0 1 1
Nghost:        4235.31 ave        4271 max        4185 min
Histogram: 1 1 2 1 3 9 5 5 3 2
Neighs:        39390.4 ave       49033 max       34637 min
Histogram: 6 4 5 7 4 1 3 1 0 1

Total # of neighbors = 1260493
Ave neighs/atom = 398.63789
Ave special neighs/atom = 2.0341556
Neighbor list builds = 226
Dangerous builds = 0
PPPM initialization ...
  extracting TIP4P info from pair style
  using 12-bit tables for long-range coulomb (../kspace.cpp:342)
  G vector (1/distance) = 0.31191818
  grid = 30 30 30
  stencil order = 5
  estimated absolute RMS force accuracy = 0.0034494791
  estimated relative force accuracy = 1.0388004e-05
  using double precision KISS FFT
  3d grid and FFT values/proc = 4950 960
Generated 0 of 15 mixed pair_coeff terms from arithmetic mixing rule
Setting up Verlet run ...
  Unit style    : real
  Current step  : 40000
  Time step     : 0.5
Per MPI rank memory allocation (min/avg/max) = 15.41 | 15.45 | 15.48 Mbytes
   Step        Density          Temp          Press          TotEng    
     40000   1.0753343      315.0044       962.54492     -16287.162    
     41000   1.069611       311.73222     -672.0789      -16286.609    
     42000   1.0696897      328.56883     -680.01893     -16164.719    
     43000   1.0663292      323.84216     -655.42037     -16190.608    
     44000   1.0747856      322.18681      244.74481     -16373.093    
     45000   1.0710198      327.03811      250.16716     -16206.94     
     46000   1.0611031      320.43607     -91.679866     -16293.851    
     47000   1.0726179      324.49595     -184.2077      -16296.567    
     48000   1.0640992      318.12374     -573.34533     -16396.83     
     49000   1.0706894      324.44239      226.66556     -16328.066    
     50000   1.0598788      315.55968     -126.37858     -16300.533    
Loop time of 30.1516 on 32 procs for 10000 steps with 3162 atoms

Performance: 14.328 ns/day, 1.675 hours/ns, 331.657 timesteps/s
99.5% CPU use with 32 MPI tasks x no OpenMP threads

MPI task timing breakdown:
Section |  min time  |  avg time  |  max time  |%varavg| %total
---------------------------------------------------------------
Pair    | 11.1       | 12.581     | 13.99      |  16.7 | 41.73
Bond    | 0.03543    | 0.042238   | 0.047534   |   1.5 |  0.14
Kspace  | 6.0574     | 7.2901     | 8.883      |  22.2 | 24.18
Neigh   | 0.6904     | 0.75024    | 0.80528    |   5.7 |  2.49
Comm    | 1.5128     | 1.7547     | 1.9367     |  10.3 |  5.82
Output  | 0.00048827 | 0.00050711 | 0.00074384 |   0.0 |  0.00
Modify  | 6.987      | 7.3145     | 7.6011     |   6.4 | 24.26
Other   |            | 0.4184     |            |       |  1.39

Nlocal:        98.8125 ave         114 max          83 min
Histogram: 2 0 4 3 6 7 4 3 1 2
Nghost:        4197.38 ave        4238 max        4153 min
Histogram: 1 0 8 2 3 0 13 2 0 3
Neighs:        38918.2 ave       46181 max       31940 min
Histogram: 1 2 2 4 8 9 2 2 0 2

Total # of neighbors = 1245384
Ave neighs/atom = 393.85958
Ave special neighs/atom = 2.0341556
Neighbor list builds = 594
Dangerous builds = 0
  create bodies CPU = 0.000 seconds
  1054 rigid bodies with 3162 atoms
  1.4901204 = max distance from body owner to body atom
PPPM initialization ...
  extracting TIP4P info from pair style
  using 12-bit tables for long-range coulomb (../kspace.cpp:342)
  G vector (1/distance) = 0.3115724
  grid = 30 30 30
  stencil order = 5
  estimated absolute RMS force accuracy = 0.0034993495
  estimated relative force accuracy = 1.0538187e-05
  using double precision KISS FFT
  3d grid and FFT values/proc = 4950 960
Generated 0 of 15 mixed pair_coeff terms from arithmetic mixing rule
Setting up Verlet run ...
  Unit style    : real
  Current step  : 0
  Time step     : 1
Per MPI rank memory allocation (min/avg/max) = 16.44 | 16.48 | 16.5 Mbytes
   Step        Density          Temp          Press          TotEng    
         0   1.0598788      315.55968      0.71141253    -16300.532    
      1000   1.0710269      318.06868      211.85337     -16225.683    
      2000   1.0744224      320.50875     -156.75339     -16344.229    
      3000   1.0596782      333.24595     -192.7227      -16268.665    
      4000   1.0654903      325.98163      458.09846     -16254.023    
      5000   1.0726286      315.48859      879.8495      -16317.565    
      6000   1.0699561      326.90283     -255.18577     -16238.943    
      7000   1.0750327      330.18422      1250.8671     -16297.013    
      8000   1.0809038      319.8523       765.17449     -16200.396    
      9000   1.0828113      321.70783      283.28854     -16323.626    
     10000   1.0833799      318.94482     -223.70409     -16403.561    
     11000   1.0711693      324.15488     -385.78438     -16334.251    
     12000   1.0660096      318.14481     -121.3597      -16364.83     
     13000   1.0798067      315.12997     -73.634713     -16380.611    
     14000   1.0705636      330.5636       630.78451     -16290.573    
     15000   1.0768985      327.29555      167.64437     -16268.582    
     16000   1.0765164      317.63633     -471.46422     -16385.655    
     17000   1.0695998      320.67211      215.04466     -16426.014    
     18000   1.0679728      324.22357      282.74893     -16330.226    
     19000   1.0768122      316.12127     -493.74628     -16309.28     
     20000   1.0735464      331.29008      24.395976     -16297.899    
     21000   1.0720735      311.4449      -523.40901     -16501.346    
     22000   1.0860115      328.34803      245.19053     -16281.707    
     23000   1.0720156      317.92863     -259.26246     -16333.306    
     24000   1.0746951      321.73134      267.50116     -16327.569    
     25000   1.0628524      329.25856      347.88445     -16225.757    
     26000   1.0741292      326.19836     -13.864027     -16242.679    
     27000   1.0724813      331.96474     -278.16873     -16317.753    
     28000   1.0841431      320.22327     -51.873895     -16353.25     
     29000   1.0605094      319.494       -216.76162     -16285.603    
     30000   1.06987        321.19618      57.947027     -16338.154    
     31000   1.0711199      331.25258      16.505516     -16321.11     
     32000   1.0725622      329.72797      120.89126     -16241.459    
     33000   1.0685753      306.67003      281.80273     -16373.08     
     34000   1.0709073      334.30571      295.6001      -16219.351    
     35000   1.071663       314.68646     -664.21731     -16400.719    
     36000   1.0826497      333.67955      223.61928     -16276.096    
     37000   1.0718905      325.63161     -457.24863     -16244.641    
     38000   1.0678023      318.59604     -445.90586     -16301.669    
     39000   1.0655067      318.85874      214.51453     -16377.722    
     40000   1.0749823      319.79801      562.74651     -16311.074    
     41000   1.077211       323.49251      419.56928     -16332.491    
     42000   1.0895942      323.25041      382.3267      -16320.554    
     43000   1.0797815      315.93255     -390.81601     -16389.839    
     44000   1.0719549      322.60427      2.175545      -16254.876    
     45000   1.0780676      320.74681      303.34368     -16292.863    
     46000   1.0682391      317.67312     -384.87433     -16248.776    
     47000   1.0746454      313.37355      630.39229     -16423.28     
     48000   1.049015       328.53107     -311.24349     -16270.571    
     49000   1.0644044      328.41538     -586.52213     -16294.567    
     50000   1.0652308      334.13018     -267.55439     -16269.032    
     51000   1.0761713      320.88336      81.512597     -16302.144    
     52000   1.0866591      319.20935      124.29888     -16342.881    
     53000   1.0777109      325.00399     -625.38749     -16266.716    
     54000   1.074428       324.50485      40.677206     -16246.993    
     55000   1.0642991      321.27595     -349.26029     -16300.186    
     56000   1.0624024      324.19537      24.491309     -16265.916    
     57000   1.0635327      318.68371      303.84446     -16334.068    
     58000   1.060234       321.18999      166.50701     -16261.246    
     59000   1.0690431      325.9776      -26.972314     -16208.731    
     60000   1.0739957      310.91552      188.95721     -16346.929    
     61000   1.073876       320.63184      102.62187     -16256.818    
     62000   1.064095       319.78175     -597.4154      -16287.121    
     63000   1.0746586      315.17323      291.69605     -16282.778    
     64000   1.066197       330.36855     -258.53728     -16157.107    
     65000   1.0677648      315.74916      782.86425     -16350.157    
     66000   1.0630238      330.11256      78.842019     -16288.807    
     67000   1.0786294      323.49159      648.10519     -16191.479    
     68000   1.0773104      329.30427     -182.81643     -16309.274    
     69000   1.0680552      324.11178     -147.66677     -16355.937    
     70000   1.0669879      329.60989     -368.79761     -16291.764    
     71000   1.0597987      307.80934     -571.01123     -16382.475    
     72000   1.0666544      316.60626      371.09606     -16295.519    
     73000   1.0653058      322.63202     -399.505       -16245.877    
     74000   1.0733988      324.34491      1119.322      -16272.937    
     75000   1.0631256      315.99379     -31.029415     -16273.027    
     76000   1.0670507      322.26795     -266.85661     -16328.749    
     77000   1.0633712      315.71359     -418.94921     -16292.182    
     78000   1.0780513      318.02955      321.45303     -16343.671    
     79000   1.0692439      327.72953      529.99664     -16197.739    
     80000   1.0728417      324.33331     -13.306238     -16311.126    
     81000   1.0765812      319.0584       358.6192      -16317.765    
     82000   1.0820751      316.1901       109.75803     -16434.548    
     83000   1.0690552      324.01457      435.57589     -16232.792    
     84000   1.0845084      330.884        73.066086     -16305.752    
     85000   1.0622794      312.97911     -8.7957688     -16311.6      
     86000   1.0563715      330.01302      111.94867     -16251.009    
     87000   1.0731083      326.40444      258.45884     -16298.939    
     88000   1.0733859      320.94848     -180.00818     -16354.825    
     89000   1.0668416      319.16674     -357.03635     -16393.078    
     90000   1.0737361      322.77746     -715.17314     -16311.573    
     91000   1.0658775      326.3046      -258.67092     -16306.766    
     92000   1.0832945      323.41232      97.049329     -16321.017    
     93000   1.0813024      324.34636     -242.30604     -16310.121    
     94000   1.0754821      326.78359      103.13765     -16270.992    
     95000   1.0686713      329.41147     -875.08678     -16246.683    
     96000   1.0738977      318.44063      314.48551     -16404.057    
     97000   1.0684912      320.61875     -524.42314     -16399.398    
     98000   1.0705377      315.36991      36.238755     -16360.59     
     99000   1.05567        311.34659     -438.83902     -16377.191    
    100000   1.0758868      319.85448      274.95348     -16363.904    
    101000   1.0610366      330.49514     -283.19588     -16179.344    
    102000   1.0642433      316.41805      736.1713      -16282.828    
    103000   1.0688802      316.75254      276.26754     -16346.063    
    104000   1.0891671      322.80103      1107.1053     -16270.368    
    105000   1.0634597      325.17797     -543.43701     -16243.505    
    106000   1.0765794      327.77869      33.457632     -16349.628    
    107000   1.0675962      323.51515      198.73701     -16285.486    
    108000   1.0641436      321.39242     -537.85519     -16306.425    
    109000   1.0693033      319.37372      160.29555     -16276.075    
    110000   1.0804557      322.03329      848.16001     -16401.788    
    111000   1.064439       323.77472      325.60634     -16250.399    
    112000   1.0755723      313.4314       246.60044     -16332.248    
    113000   1.0726974      315.92546      52.791851     -16281.851    
    114000   1.0596738      319.41064     -345.1637      -16286.103    
    115000   1.0696921      338.09424     -222.48099     -16297.09     
    116000   1.0582465      334.34564     -199.69392     -16250.83     
    117000   1.0916704      325.26607      1152.7056     -16323.431    
    118000   1.0617018      324.85296     -1078.7405     -16233.433    
    119000   1.0563781      309.11941     -449.93861     -16307.48     
    120000   1.0684674      316.51661     -451.7157      -16261.749    
    121000   1.0754568      308.72884      113.57092     -16354.208    
    122000   1.060983       315.6942       5.2977332     -16292.932    
    123000   1.0729406      325.02314      532.45471     -16197.941    
    124000   1.0694042      324.28625      14.986352     -16215.596    
    125000   1.0666224      325.7161      -355.85169     -16399.055    
    126000   1.0697622      321.71159      862.07962     -16230.714    
    127000   1.0767432      316.76003      993.48111     -16370.787    
    128000   1.0632381      317.36303     -117.57729     -16241.828    
    129000   1.0728359      322.3911      -55.015055     -16279.892    
    130000   1.0578266      330.29799     -516.17714     -16232.245    
    131000   1.0693033      322.85854      630.51348     -16392.829    
    132000   1.0549949      318.65207     -608.68304     -16287.144    
    133000   1.0835514      322.60719      1488.9449     -16429.657    
    134000   1.0497619      334.96367     -474.5742      -16287.368    
    135000   1.0674776      325.44462      656.28061     -16320.065    
    136000   1.053692       324.92556     -1051.2303     -16262.343    
    137000   1.0787609      320.3838       450.22077     -16309.924    
    138000   1.0485805      325.04405     -204.62952     -16283.063    
    139000   1.0738321      318.47804      812.85492     -16288.158    
    140000   1.0649365      324.84289      120.00457     -16228.934    
    141000   1.076777       321.53344      290.02155     -16308.127    
    142000   1.0730098      319.26376      57.001655     -16254.481    
    143000   1.0742465      332.75828      330.26339     -16320.816    
    144000   1.0543815      319.798        413.03275     -16340.185    
    145000   1.0673471      311.55148     -415.11032     -16385.004    
    146000   1.0749837      321.64943      436.45208     -16268.116    
    147000   1.0690783      331.90322     -601.3118      -16188.759    
    148000   1.0754962      323.11484     -53.39508      -16413.747    
    149000   1.0620541      316.77705     -296.25346     -16373.238    
    150000   1.0775134      337.42638      758.01986     -16281.542    
    151000   1.0682058      325.13446      155.44635     -16225.433    
    152000   1.0854879      322.20135      654.52144     -16371.814    
    153000   1.068021       324.7979      -350.54363     -16154.153    
    154000   1.0719282      320.06586      447.03098     -16348.181    
    155000   1.0607614      325.47506     -82.31455      -16266.537    
    156000   1.0634504      325.9607      -510.11294     -16252.032    
    157000   1.059023       328.22564     -74.862451     -16321.145    
    158000   1.0707079      327.70537     -86.462108     -16264.064    
    159000   1.0565479      334.10418      413.01919     -16221.834    
    160000   1.0606755      331.54575     -698.13813     -16232.681    
    161000   1.0869839      318.87659      154.86949     -16371.079    
    162000   1.0737693      323.41219     -250.60446     -16348.94     
    163000   1.069683       321.58873     -141.96687     -16388.942    
    164000   1.0703064      323.10755      36.230907     -16368.367    
    165000   1.0623597      317.03521     -361.11539     -16380.535    
    166000   1.0649445      331.40462     -592.64962     -16265.566    
    167000   1.0716004      330.09652     -305.16612     -16275.214    
    168000   1.0571801      328.24201     -508.5386      -16188.448    
    169000   1.0749316      330.11454      217.17507     -16327.836    
    170000   1.0600709      317.58989     -187.30021     -16349.214    
    171000   1.0613763      325.80444     -79.588224     -16285.088    
    172000   1.0717909      329.86913     -203.92686     -16246.08     
    173000   1.0619979      327.45544     -135.82306     -16205.912    
    174000   1.080621       321.84139     -107.91422     -16295.19     
    175000   1.0851357      331.58203      109.73003     -16160.887    
    176000   1.0795239      316.35179     -360.85029     -16320.54     
    177000   1.0689401      329.89081      884.77563     -16214.332    
    178000   1.0742819      321.83645      507.23874     -16294.517    
    179000   1.0709995      324.99534      330.9423      -16316.849    
    180000   1.064012       325.70329     -102.90528     -16246.963    
    181000   1.0737866      321.00994     -70.62472      -16373.898    
    182000   1.0743703      322.13678     -11.078972     -16320.004    
    183000   1.0834596      325.20762     -287.78321     -16303.717    
    184000   1.0737513      321.55319     -504.26922     -16319.318    
    185000   1.0712283      317.58819     -778.33678     -16390.204    
    186000   1.0775051      321.59678      188.70772     -16305.021    
    187000   1.0498809      320.33566     -845.4668      -16224.142    
    188000   1.0887992      328.32374      2054.2417     -16378.036    
    189000   1.0572304      331.55475     -21.67204      -16211.644    
    190000   1.0627358      327.28172     -1.3040341     -16322.329    
    191000   1.068089       330.95678      48.206623     -16234.715    
    192000   1.062822       326.02052     -120.1433      -16245.601    
    193000   1.0727067      318.8867       131.13123     -16282.56     
    194000   1.0710554      321.47833     -500.41398     -16271.216    
    195000   1.0686139      320.00397     -266.08027     -16381.525    
    196000   1.071811       321.56868      439.61477     -16363.404    
    197000   1.0643382      321.28611      242.88761     -16297.945    
    198000   1.0598735      327.70759     -38.99743      -16208.346    
    199000   1.071634       318.50726      203.60879     -16341.39     
    200000   1.0654215      319.4492      -234.81816     -16237.512    
    201000   1.048227       323.25504     -639.68004     -16217.204    
    202000   1.0802285      323.19477      591.9934      -16274.336    
    203000   1.0727898      324.97065      203.83861     -16288.705    
    204000   1.063213       317.90718     -8.654467      -16340.575    
    205000   1.077316       322.76658      1176.5949     -16311.442    
    206000   1.0707331      320.88163     -414.34723     -16260.949    
    207000   1.0663143      321.71508     -406.39187     -16306.823    
    208000   1.0806222      331.07974      645.04229     -16252.047    
    209000   1.068236       327.80901      36.858371     -16237.972    
    210000   1.0595011      314.21669     -717.82753     -16367.698    
    211000   1.0658563      318.16213      24.233402     -16323.058    
    212000   1.078671       326.53979      405.00169     -16269.787    
    213000   1.0666656      319.62845     -809.17097     -16305.408    
    214000   1.0762898      311.63592     -17.540947     -16419.679    
    215000   1.0621248      319.19657     -241.95069     -16282.771    
    216000   1.0685452      323.09895     -60.656356     -16253.9      
    217000   1.073559       327.86084      369.60388     -16250.996    
    218000   1.0625628      329.09287     -41.798181     -16304.229    
    219000   1.0820351      323.03236      707.82185     -16324.092    
    220000   1.0666357      316.36495      289.27804     -16411.246    
    221000   1.0677521      331.3889       326.57935     -16255.779    
    222000   1.0631775      313.99243     -482.48002     -16426.198    
    223000   1.1004053      325.34141      1501.6928     -16391.752    
    224000   1.0610878      326.23644     -442.17402     -16262.304    
    225000   1.069875       325.07777      778.0126      -16281.371    
    226000   1.0670012      320.52305     -402.53725     -16269.919    
    227000   1.0793763      323.06447     -280.16348     -16306.986    
    228000   1.0715012      315.56063     -467.67115     -16403.323    
    229000   1.067308       323.12181     -485.71605     -16250.283    
    230000   1.0751686      308.52905      720.59424     -16422.057    
    231000   1.0694733      322.14988      189.05379     -16259.282    
    232000   1.0758811      324.29069      486.20048     -16284.561    
    233000   1.0672525      325.55868      55.42975      -16319.645    
    234000   1.0587801      332.73253     -429.94967     -16156.151    
    235000   1.0788361      327.55409      186.23321     -16362.1      
    236000   1.0624532      317.91689     -433.43407     -16330.949    
    237000   1.0629356      332.45385      361.40884     -16167.363    
    238000   1.0752583      325.83469      26.159007     -16308.576    
    239000   1.0792065      327.43335      506.53822     -16297.212    
    240000   1.0714996      323.47164     -110.29895     -16334.913    
    241000   1.0541994      322.27799     -611.33259     -16284.17     
    242000   1.0910772      312.46824      861.03536     -16350.806    
    243000   1.0653637      323.95804     -369.77387     -16280.986    
    244000   1.0735769      324.45627      5.5501872     -16319.103    
    245000   1.0703513      324.49387     -217.24446     -16275.02     
    246000   1.064743       313.85897     -23.724443     -16286.944    
    247000   1.0650236      321.83587     -605.69771     -16326.334    
    248000   1.0671444      313.7695       193.76432     -16256.665    
    249000   1.0649207      323.25971     -607.27097     -16274.677    
    250000   1.0610713      324.13851      991.84511     -16304.76     
    251000   1.0457129      324.15168     -231.40629     -16275.135    
    252000   1.0652024      327.23042      947.2202      -16343.06     
    253000   1.0661836      322.34995     -184.57322     -16309.28     
    254000   1.0743311      322.04851      199.35669     -16331.591    
    255000   1.0720401      325.7035       775.09894     -16185.679    
    256000   1.0612383      325.5446      -194.99631     -16308.014    
    257000   1.0613312      332.60579     -106.2536      -16241.773    
    258000   1.0698479      313.49112      534.05502     -16258.148    
    259000   1.0729902      310.84785     -42.054247     -16353.943    
    260000   1.0630217      323.32067      766.92558     -16345.349    
    261000   1.0697364      333.22182      433.63924     -16247.875    
    262000   1.0561353      323.86635     -595.82638     -16308.476    
    263000   1.0811148      327.32037      560.75886     -16313.931    
    264000   1.0757159      320.13998     -425.30574     -16322.008    
    265000   1.0727115      314.52152      227.51786     -16358.682    
    266000   1.061431       328.09445     -778.18162     -16224.007    
    267000   1.07147        329.34727      442.40942     -16224.595    
    268000   1.0569799      321.53894     -366.49441     -16374.022    
    269000   1.0750531      327.00649      146.27877     -16298.223    
    270000   1.0776986      327.95412      1012.1988     -16254.149    
    271000   1.0785679      320.07228     -257.98437     -16323.728    
    272000   1.0666446      324.75748     -810.18945     -16397.817    
    273000   1.0611767      319.95677     -303.44777     -16345.013    
    274000   1.0818623      324.08977      379.04471     -16311.389    
    275000   1.0611643      325.51992     -1102.5248     -16262.861    
    276000   1.079781       318.41422      303.44305     -16304.134    
    277000   1.0732946      320.80677     -429.84982     -16305.606    
    278000   1.0691104      314.22717      16.171707     -16388.779    
    279000   1.0741731      319.96799      91.839536     -16346.699    
    280000   1.0509852      317.0023      -610.2885      -16324.286    
    281000   1.0702923      317.18214      146.7821      -16302.359    
    282000   1.0793327      312.50769     -148.42099     -16360.643    
    283000   1.0581225      326.28268     -1257.1315     -16274.228    
    284000   1.0899305      317.58974      615.97979     -16440.761    
    285000   1.0630737      325.71603     -1110.3751     -16236.114    
    286000   1.0884475      326.61423      524.37053     -16427.862    
    287000   1.0556361      328.7863      -870.58454     -16242.845    
    288000   1.0872745      330.41591      485.86882     -16298.274    
    289000   1.0757134      319.68148     -404.11484     -16377.697    
    290000   1.0761176      331.35981      458.70364     -16295.396    
    291000   1.0756254      319.97672     -193.53969     -16228.684    
    292000   1.0632692      328.69925      260.98456     -16314.829    
    293000   1.0692448      319.04141      560.65928     -16249.163    
    294000   1.0712243      334.31839     -118.60195     -16250.217    
    295000   1.0698841      314.66899      84.120753     -16227.181    
    296000   1.0533134      315.29833     -416.88371     -16263.401    
    297000   1.0725943      327.60854      154.03817     -16271.246    
    298000   1.0706016      320.75889      338.25109     -16273.821    
    299000   1.0579947      330.87538     -468.80739     -16254.689    
    300000   1.0718053      320.89253      897.23952     -16250.8      
    301000   1.0642453      321.62196      267.66433     -16194.506    
    302000   1.0712937      324.09218     -227.7351      -16358.521    
    303000   1.0634396      318.65892     -754.6909      -16336.331    
    304000   1.0898624      325.77614      503.21433     -16366.933    
    305000   1.0680518      319.38607      29.220761     -16265.792    
    306000   1.060072       326.39283     -581.54791     -16280.452    
    307000   1.0823416      321.96323      385.68927     -16314.016    
    308000   1.0620749      315.43666     -663.50742     -16292.215    
    309000   1.0817487      324.40625      840.56743     -16280.105    
    310000   1.0621541      331.53498     -557.96338     -16219.4      
    311000   1.072416       324.63945      398.39884     -16268.474    
    312000   1.0628267      321.23386     -412.9485      -16175.995    
    313000   1.0734281      319.79979      265.09621     -16260.253    
    314000   1.0782882      326.3554       93.831921     -16306.49     
    315000   1.0694971      323.07993      224.68885     -16337.966    
    316000   1.0595623      311.48524      330.82341     -16323.029    
    317000   1.0668762      325.73114      235.16578     -16276.052    
    318000   1.0607275      319.57089      307.00849     -16333.59     
    319000   1.0631668      319.15013      379.15973     -16257.742    
    320000   1.0739519      323.5971      -785.9428      -16316.4      
    321000   1.0640418      318.50209     -60.699576     -16278.856    
    322000   1.0580822      313.24272      511.93801     -16349.461    
    323000   1.0679956      320.69368     -2.5369399     -16358.226    
    324000   1.0579437      327.88869      2.4954739     -16220.693    
    325000   1.0758792      327.99806      525.15796     -16261.23     
    326000   1.0654825      313.06741     -44.008513     -16308.798    
    327000   1.0700205      321.28237      646.16285     -16238.29     
    328000   1.065911       318.6224      -657.06867     -16313.255    
    329000   1.0696149      317.92653     -270.51598     -16314.171    
    330000   1.0689085      321.34536     -866.75833     -16337.288    
    331000   1.0606589      321.15121     -619.26742     -16303.733    
    332000   1.0735309      322.27294      395.13107     -16228.635    
    333000   1.0633824      336.30473      111.33387     -16200.777    
    334000   1.0783824      315.69342      134.25809     -16313.108    
    335000   1.0625648      314.64031     -534.35317     -16347.238    
    336000   1.0610861      325.65702     -212.15936     -16287.704    
    337000   1.0645954      315.98738      829.10983     -16252.871    
    338000   1.0611639      325.22521     -389.69517     -16253.113    
    339000   1.0623913      319.73343      759.9248      -16269.788    
    340000   1.076836       323.05122      501.52244     -16299.397    
    341000   1.0623728      319.93809      273.05978     -16326.044    
    342000   1.0699671      324.17063      240.10787     -16274.653    
    343000   1.0725205      328.87649     -191.1224      -16295.254    
    344000   1.0722112      312.97823     -786.60383     -16317.05     
    345000   1.0869393      320.37557      416.62764     -16284.201    
    346000   1.0692639      322.80971     -38.182142     -16297.733    
    347000   1.0726288      326.27671     -1008.2137     -16283.669    
    348000   1.0873322      322.38238      592.25854     -16446.057    
    349000   1.0775293      320.31278     -357.69896     -16359.133    
    350000   1.0623051      322.31561     -110.44123     -16263.095    
    351000   1.083961       328.62592      981.02058     -16322.078    
    352000   1.0644959      322.26163     -7.2252891     -16330.011    
    353000   1.0609157      317.03458     -560.73289     -16333.558    
    354000   1.0641561      327.6243       115.16873     -16226.875    
    355000   1.0773307      322.98225      1122.6138     -16305.479    
    356000   1.0637186      316.43749      121.83045     -16343.196    
    357000   1.0736994      320.28813     -566.57782     -16282.031    
    358000   1.0644158      320.18112     -1.3093221     -16249.489    
    359000   1.0621642      324.28527      155.05754     -16294.522    
    360000   1.0670026      329.72355      180.18714     -16159.488    
    361000   1.055026       314.76261     -520.97103     -16375.34     
    362000   1.0606174      323.37042      361.17909     -16294.7      
    363000   1.066875       320.8758       65.760332     -16334.645    
    364000   1.0583136      319.58221      52.854191     -16341.738    
    365000   1.0750086      327.58425     -21.282668     -16343.486    
    366000   1.0707949      319.45157      342.15998     -16349.641    
    367000   1.0648764      330.98136      1051.5456     -16172.36     
    368000   1.0609574      321.55642      94.590117     -16249.144    
    369000   1.0615994      326.15972      276.94947     -16207.959    
    370000   1.0833936      316.20736      0.86774632    -16389.296    
    371000   1.0758951      319.99619      105.91579     -16372.717    
    372000   1.0560684      326.65687     -19.512835     -16242.56     
    373000   1.0796106      322.52676      238.97217     -16362.913    
    374000   1.0735087      317.93158      293.40494     -16373.896    
    375000   1.0636925      325.8524      -589.41072     -16174.306    
    376000   1.0759143      318.8175       24.181617     -16374.131    
    377000   1.0548566      326.30316     -937.69311     -16244.339    
    378000   1.081664       319.24589      291.36565     -16421.901    
    379000   1.0680189      325.69736      369.91538     -16234.966    
    380000   1.0570469      315.58674      270.08002     -16330.897    
    381000   1.0673424      325.86067     -82.327633     -16214.012    
    382000   1.0824596      320.08274     -274.20757     -16390.677    
    383000   1.0830891      309.55436      233.04583     -16380.944    
    384000   1.0701711      318.0649      -208.80896     -16260.32     
    385000   1.0728683      313.2024      -72.050561     -16412.144    
    386000   1.0715371      317.10236     -42.993853     -16228.735    
    387000   1.0696269      321.49736      627.72187     -16243.96     
    388000   1.0498555      317.84165     -938.17542     -16348.112    
    389000   1.0595277      318.11768      111.28952     -16398.923    
    390000   1.068942       323.99819      249.79651     -16335.52     
    391000   1.0763894      318.20928      198.43353     -16335.617    
    392000   1.0550326      323.73288     -80.1299       -16332.348    
    393000   1.0676239      312.38776     -179.53816     -16366.099    
    394000   1.0605915      329.14856      558.10255     -16276.412    
    395000   1.0628         314.84804     -397.99028     -16363.416    
    396000   1.0614494      317.86336      157.06571     -16247.741    
    397000   1.071585       320.25266     -137.274       -16322.33     
    398000   1.070151       316.14369      833.3976      -16461.574    
    399000   1.0577666      330.28937     -1223.3348     -16192.988    
    400000   1.0716731      327.63409     -217.29964     -16236.095    
    401000   1.0678392      323.80034     -42.864346     -16225.501    
    402000   1.0747304      329.73404      836.38312     -16250.214    
    403000   1.0638214      324.8805      -829.28784     -16197.037    
    404000   1.0608116      321.09384      132.7564      -16322.559    
    405000   1.0663016      327.86478      634.08308     -16193.722    
    406000   1.058668       310.83529      205.07888     -16319.156    
    407000   1.0718085      316.87481     -160.43536     -16337.419    
    408000   1.0615154      324.74078      691.55368     -16337.523    
    409000   1.0626211      314.5977       59.82085      -16308.618    
    410000   1.0657904      321.58613     -251.47161     -16331.889    
    411000   1.0645403      320.81907     -5.3980472     -16344.346    
    412000   1.0832077      318.06664     -180.11602     -16367.566    
    413000   1.0729943      332.9059      -419.60081     -16104.157    
    414000   1.0633062      319.74786      274.39205     -16308.978    
    415000   1.0575842      327.18144     -367.98406     -16211.959    
    416000   1.0763215      314.18785      184.75754     -16353.769    
    417000   1.069803       318.90288     -181.35856     -16332.532    
    418000   1.059023       313.5502      -241.11348     -16317.781    
    419000   1.077131       315.89277      1141.4689     -16288.873    
    420000   1.0696291      329.66279     -422.25203     -16186.92     
    421000   1.0786157      315.18988     -91.711975     -16389.508    
    422000   1.0644964      327.48574     -679.23281     -16279.637    
    423000   1.0768142      328.11685     -172.43389     -16264.749    
    424000   1.0565311      333.37452      672.19269     -16198.863    
    425000   1.0741499      323.91251      11.679064     -16294.333    
    426000   1.0677718      318.86456      139.27529     -16367.575    
    427000   1.0611043      319.43628     -900.28273     -16245.778    
    428000   1.0757146      314.82459      706.11757     -16356.69     
    429000   1.0754973      325.2023       618.83627     -16198.47     
    430000   1.0634587      311.6267      -29.725653     -16318.031    
    431000   1.0857396      331.35192      258.85225     -16356.092    
    432000   1.0699612      318.36708     -867.45621     -16356.019    
    433000   1.0786748      325.73219     -23.381538     -16352.761    
    434000   1.0592679      329.98327     -50.520565     -16204.657    
    435000   1.0789923      320.14795      161.46045     -16273.033    
    436000   1.0597734      324.01281     -698.05276     -16253.035    
    437000   1.0576761      335.62622     -94.467944     -16116.47     
    438000   1.0679468      307.4239      -375.26406     -16287.211    
    439000   1.0821149      312.72695      451.32617     -16330.777    
    440000   1.0672061      319.12054     -221.33237     -16290.082    
    441000   1.0712078      335.87012      181.46048     -16235.076    
    442000   1.0740397      319.72134     -288.82586     -16458.359    
    443000   1.0625433      326.66791     -396.41116     -16226.269    
    444000   1.0679049      319.0484       219.36628     -16340.788    
    445000   1.0708145      323.64915      159.64251     -16312.063    
    446000   1.0624898      311.30309     -153.64324     -16353.907    
    447000   1.0743987      313.50281      126.4406      -16458.748    
    448000   1.0616606      321.63387      795.33583     -16321.462    
    449000   1.0810016      319.72301      544.6397      -16339.415    
    450000   1.0614682      318.8033      -334.33797     -16312.28     
    451000   1.0776596      321.25253      912.84807     -16324.733    
    452000   1.0588831      316.02512     -543.59075     -16405.715    
    453000   1.074433       331.2766       544.90121     -16179.272    
    454000   1.0722359      331.89119     -534.80143     -16212.152    
    455000   1.0651669      322.46176     -626.6222      -16285.162    
    456000   1.0711381      330.34923      284.49156     -16215.194    
    457000   1.0701637      324.69147      177.55043     -16247.675    
    458000   1.067318       318.56422      243.6179      -16218.023    
    459000   1.0810529      310.37444      1181.0473     -16392.068    
    460000   1.0738444      325.78838      249.52751     -16271.897    
    461000   1.0665611      312.38122     -64.655402     -16358.47     
    462000   1.0794597      316.99625     -138.56114     -16294.264    
    463000   1.0832539      323.21904      290.60279     -16238.093    
    464000   1.0811653      327.51417     -649.69569     -16400.949    
    465000   1.0648521      315.64794     -264.3857      -16351.766    
    466000   1.076058       313.97651      192.38119     -16409.208    
    467000   1.0641233      323.75206      544.25528     -16245.545    
    468000   1.087726       324.63863      929.67491     -16221.718    
    469000   1.0665663      319.94076     -905.31424     -16411.36     
    470000   1.0616748      328.31266     -157.04647     -16193.786    
    471000   1.0785525      328.24496     -209.32281     -16212.965    
    472000   1.0851685      320.23817      15.673719     -16334.582    
    473000   1.0630089      326.46616     -437.81405     -16183.135    
    474000   1.0733633      321.73457     -207.86067     -16310.218    
    475000   1.0616499      320.65789     -325.47773     -16297.956    
    476000   1.0722837      323.03764     -181.77156     -16356.585    
    477000   1.0778381      324.89206     -66.88584      -16225.485    
    478000   1.0603998      324.89632     -412.42069     -16193.899    
    479000   1.0653333      321.4281      -473.36055     -16255.286    
    480000   1.0656676      317.40474     -117.5096      -16283.597    
    481000   1.0625128      319.38608      35.702322     -16313.218    
    482000   1.0795273      321.07014      258.56622     -16256.713    
    483000   1.0541094      325.47685      46.630949     -16226.702    
    484000   1.0704278      327.86816      440.39119     -16260.283    
    485000   1.0644653      327.34484      33.215278     -16231.867    
    486000   1.0683563      325.02158     -363.72538     -16413.568    
    487000   1.0538228      327.30045     -951.59797     -16231.296    
    488000   1.0729053      315.94469      511.00629     -16268.354    
    489000   1.0802042      326.93985      392.67468     -16342.543    
    490000   1.0771902      323.70667     -552.16897     -16289.598    
    491000   1.0675481      316.78834     -104.32238     -16364.639    
    492000   1.0424569      320.03942     -771.54357     -16259.345    
    493000   1.0763664      319.62608      793.85976     -16230.742    
    494000   1.0638558      327.17553     -1030.4756     -16276.024    
    495000   1.0706392      332.2592      -54.630423     -16271.857    
    496000   1.068993       315.26821     -174.53674     -16301.079    
    497000   1.0638301      326.07692      375.74084     -16334.315    
    498000   1.0667713      321.14982     -245.92241     -16390.185    
    499000   1.0781152      326.95212      743.35681     -16285.436    
    500000   1.0667719      321.47165     -43.150859     -16299.884    
    501000   1.0792813      319.0972       447.57168     -16347.8      
    502000   1.0705931      325.22331     -156.12907     -16257.989    
    503000   1.0730285      324.62111      6.9199271     -16401.218    
    504000   1.0585612      317.81243     -766.29988     -16340.535    
    505000   1.0753759      323.1626       513.29912     -16363.038    
    506000   1.0710824      326.34915     -677.71084     -16352.867    
    507000   1.0668236      324.4453       269.5626      -16265.551    
    508000   1.084882       318.34325      468.13832     -16417.646    
    509000   1.0610756      322.01152     -405.41819     -16296.528    
    510000   1.0685686      333.70315      433.51194     -16254.887    
    511000   1.0665821      321.17976     -210.04585     -16296.707    
    512000   1.0812084      321.05626      529.95272     -16279.387    
    513000   1.066072       319.7185      -31.208037     -16315.324    
    514000   1.079421       323.08263      762.48626     -16322.54     
    515000   1.0442619      318.7565      -685.94883     -16212.381    
    516000   1.074323       319.63902      765.90025     -16349.649    
    517000   1.0671743      314.05147      542.37392     -16269.215    
    518000   1.0685652      322.15114      808.93197     -16308.216    
    519000   1.0673023      314.954        140.42346     -16297.121    
    520000   1.0696818      323.80798     -172.89043     -16330.827    
    521000   1.0576311      320.73972      15.124644     -16420.648    
    522000   1.0728076      312.37297      648.29242     -16437.901    
    523000   1.0719216      333.37252      559.11155     -16212.626    
    524000   1.0760485      312.29413      534.20703     -16426.101    
    525000   1.0731075      329.96021      526.59315     -16285.758    
    526000   1.0619703      327.10817     -660.66314     -16246.914    
    527000   1.083559       317.85045      166.5999      -16379.591    
    528000   1.0781758      325.31197     -357.82505     -16349.331    
    529000   1.0643644      328.2764      -243.37787     -16285.532    
    530000   1.0636831      320.05251      612.34991     -16331.77     
    531000   1.0764626      330.36274     -93.366255     -16224.685    
    532000   1.0735119      319.3292       186.08947     -16299.887    
    533000   1.0519952      318.58952     -627.75056     -16289.426    
    534000   1.0768607      321.61577      360.82308     -16361.214    
    535000   1.0672301      324.59984      461.01539     -16278.528    
    536000   1.0631475      323.37542     -384.27899     -16417.874    
    537000   1.0652592      320.96922     -282.48359     -16348.649    
    538000   1.0669485      322.6935       90.521945     -16283.246    
    539000   1.0731577      320.4084       8.5616802     -16224.365    
    540000   1.062242       327.70575     -520.23651     -16190.391    
    541000   1.0706029      318.31066      373.26182     -16341.25     
    542000   1.0724212      325.60168      631.05761     -16293.555    
    543000   1.0557066      325.87354     -702.56946     -16214.893    
    544000   1.0718409      325.55376      877.40324     -16233.194    
    545000   1.0704361      321.75398     -240.68493     -16171.535    
    546000   1.0849031      319.21146      229.15533     -16269.74     
    547000   1.0724758      321.93735      212.94954     -16297.045    
    548000   1.0789333      324.02937      534.88272     -16288.172    
    549000   1.06586        336.57808      181.03276     -16178.92     
    550000   1.0855012      319.69966      128.53912     -16413.225    
    551000   1.0705721      326.40467     -26.127106     -16258.205    
    552000   1.0751833      325.2796       1042.4657     -16326.642    
    553000   1.0710539      322.65067     -105.98076     -16316.554    
    554000   1.0754777      327.46304      977.78214     -16274.998    
    555000   1.0702109      324.17507     -1086.9365     -16210.781    
    556000   1.0750921      318.66795      213.02353     -16393.898    
    557000   1.0693984      330.29304     -165.97841     -16180.225    
    558000   1.0801994      312.11536      596.33633     -16367.987    
    559000   1.0689324      324.22578     -288.03732     -16268.804    
    560000   1.0705956      316.96254      117.29539     -16415.35     
    561000   1.0588675      317.10189      313.68502     -16341.066    
    562000   1.0638007      314.93121      783.45478     -16270.57     
    563000   1.0622725      325.75859      339.44053     -16296.128    
    564000   1.0631633      322.07292      495.08633     -16402.587    
    565000   1.0597862      324.06581     -635.3579      -16307.422    
    566000   1.0612792      324.03524     -305.69643     -16292.145    
    567000   1.0649701      328.31924     -150.09623     -16221.437    
    568000   1.0704605      325.98328     -167.82794     -16213.909    
    569000   1.08509        317.90017      931.30169     -16403.518    
    570000   1.0688607      316.30702      181.65648     -16286.926    
    571000   1.0704116      330.38307     -284.34927     -16249.801    
    572000   1.0625083      323.99601     -289.59481     -16296.806    
    573000   1.061816       329.23126      173.04346     -16305.819    
    574000   1.0761073      327.65768      32.242871     -16295.645    
    575000   1.0633885      314.57806     -612.58532     -16341.406    
    576000   1.0713183      311.58721     -141.34412     -16394.199    
    577000   1.0559836      314.08919     -757.51586     -16394.803    
    578000   1.0769415      314.90598      243.86158     -16383.572    
    579000   1.0684845      323.89221      369.68157     -16185.945    
    580000   1.0600774      318.64125      25.987925     -16253.897    
    581000   1.065774       329.08447      87.479545     -16212.657    
    582000   1.0818653      324.78474      797.03036     -16233.258    
    583000   1.0660232      326.19703      319.07912     -16276.792    
    584000   1.0751314      318.91206     -464.91814     -16381.024    
    585000   1.0648982      323.74638     -882.57985     -16278.742    
    586000   1.0701964      326.67761      202.23167     -16249.922    
    587000   1.0736592      323.99874     -76.825129     -16310.195    
    588000   1.0918445      319.67264      804.48249     -16324.599    
    589000   1.0698442      320.38798      439.24008     -16293.829    
    590000   1.054313       311.66206      126.91229     -16385.133    
    591000   1.063844       325.92217      1159.1645     -16318.71     
    592000   1.0678326      322.43531     -98.970669     -16259.786    
    593000   1.0770043      326.4981      -17.037735     -16247.451    
    594000   1.0833117      323.03305      1011.7444     -16326.361    
    595000   1.0694412      329.96677     -2.913243      -16263.322    
    596000   1.0680677      329.76407      119.37983     -16198.434    
    597000   1.0698821      321.72235      416.73666     -16251.157    
    598000   1.0610081      327.06652     -621.2482      -16281.308    
    599000   1.0727986      319.69674      320.2535      -16335.622    
    600000   1.0786783      319.8788       693.30489     -16356.928    
    601000   1.0594735      327.82784     -625.32761     -16261.265    
    602000   1.0611894      321.26024     -341.05713     -16412.094    
    603000   1.0761437      321.23399      533.90729     -16281.984    
    604000   1.0850331      316.31065     -594.00875     -16396.787    
    605000   1.0689335      323.88799      162.4853      -16274.599    
    606000   1.075301       322.58127      186.61446     -16317.266    
    607000   1.0692978      322.76778     -385.10143     -16264.192    
    608000   1.0696203      326.36751      148.43867     -16271.372    
    609000   1.0773622      332.85567     -60.969022     -16173.111    
    610000   1.082731       320.25754      110.6487      -16313.035    
    611000   1.0615048      323.75139     -610.79922     -16301.873    
    612000   1.0580893      335.4311       586.58336     -16208.636    
    613000   1.0777409      321.51933      581.38978     -16346.611    
    614000   1.0714964      329.61259      5.5418449     -16239.131    
    615000   1.0692109      336.33456      241.48828     -16241.301    
    616000   1.0768989      319.46711      320.80215     -16409.728    
    617000   1.0719274      326.41302     -79.83648      -16342.438    
    618000   1.0645845      320.76189     -313.37159     -16310.865    
    619000   1.0658938      318.57259      418.44453     -16381.899    
    620000   1.0727807      315.04309      270.76941     -16386.875    
    621000   1.0731083      320.43635      1552.2162     -16289.314    
    622000   1.0629289      323.03773     -483.62782     -16230.664    
    623000   1.0713706      312.94711      128.58301     -16399.103    
    624000   1.0555684      330.31269     -23.050048     -16140.583    
    625000   1.064158       321.43754      549.12057     -16271.064    
    626000   1.0615469      314.58221     -222.24326     -16337.269    
    627000   1.0693203      327.02145     -601.65231     -16249.585    
    628000   1.0705038      324.19531     -129.21644     -16251.535    
    629000   1.06458        336.34829     -205.36807     -16152.548    
    630000   1.0679925      327.5784      -215.52565     -16384.893    
    631000   1.0667384      321.02577     -763.96028     -16314.325    
    632000   1.0845887      329.5747       492.60184     -16374.738    
    633000   1.0727078      326.59008     -427.98287     -16227.312    
    634000   1.0661747      316.6837      -12.496147     -16314.707    
    635000   1.0750568      323.99497     -249.98276     -16342.926    
    636000   1.0755639      332.98825      43.835882     -16280.378    
    637000   1.0684161      318.16933      337.95653     -16276.463    
    638000   1.0559187      326.3488      -247.42829     -16247.455    
    639000   1.0662863      323.72791      309.25145     -16310.965    
    640000   1.053697       320.03792     -383.92434     -16282.28     
    641000   1.0815447      327.43395      542.22888     -16342.6      
    642000   1.0671027      325.12855      44.818641     -16286.367    
    643000   1.0675513      324.82491      251.41822     -16282.353    
    644000   1.0662123      324.30862     -659.55585     -16301.232    
    645000   1.0730867      327.07659      105.85427     -16345.29     
    646000   1.0713867      323.55061     -71.122361     -16300.707    
    647000   1.0682815      317.82129      12.947831     -16411.754    
    648000   1.0792876      321.79979     -146.37393     -16320.306    
    649000   1.0798803      323.38105      511.33179     -16322.236    
    650000   1.0676509      327.88728     -473.7712      -16291.02     
    651000   1.0607614      317.83593     -259.06393     -16390.269    
    652000   1.0668267      316.54319     -305.5884      -16340.975    
    653000   1.0922211      316.50399      1204.6561     -16328.592    
    654000   1.0742659      324.81007     -297.35832     -16289.702    
    655000   1.085508       319.33234      19.174244     -16402.192    
    656000   1.0668985      329.26343      300.79725     -16161.351    
    657000   1.0588482      326.94526     -821.87292     -16300.84     
    658000   1.0633523      319.73949     -143.05205     -16393.01     
    659000   1.0699138      322.50541      711.83887     -16218.619    
    660000   1.0504351      320.40921     -277.69253     -16311.1      
    661000   1.0566665      331.23209      541.53552     -16219.613    
    662000   1.0627153      320.86799      600.19109     -16302.766    
    663000   1.0508198      330.36364      260.14887     -16246.741    
    664000   1.0586517      319.32913      567.40139     -16294.13     
    665000   1.0753803      328.14849      285.38164     -16255.156    
    666000   1.0581525      330.34423     -533.01873     -16200.129    
    667000   1.0641912      326.24493      416.51307     -16291.603    
    668000   1.0675574      316.47068     -548.74823     -16309.143    
    669000   1.0530935      327.02029     -575.2452      -16237.765    
    670000   1.0696846      328.16042      18.921699     -16267.156    
    671000   1.0688029      315.10899     -661.01499     -16345.316    
    672000   1.0833999      317.8177       1015.8559     -16440.701    
    673000   1.066944       318.77235     -39.440813     -16318.756    
    674000   1.0635154      326.21775      113.79218     -16214.637    
    675000   1.0734446      321.62139      6.7162419     -16343.799    
    676000   1.0755396      323.6684      -194.20264     -16273.613    
    677000   1.0730167      326.62148      69.464736     -16253.603    
    678000   1.0777601      324.13086     -312.37939     -16311.538    
    679000   1.0784533      325.67717      168.87908     -16280.803    
    680000   1.0654894      334.54819     -655.9004      -16181.607    
    681000   1.0804448      330.22238      1184.3601     -16241.249    
    682000   1.0649665      321.28451     -489.85243     -16269.425    
    683000   1.0702422      318.10858      101.44386     -16433.242    
    684000   1.0617794      319.44025     -342.12094     -16296.751    
    685000   1.0736988      317.73499     -560.87715     -16308.967    
    686000   1.0766283      324.77221     -148.79801     -16325.834    
    687000   1.0697101      330.17813     -243.61225     -16205.444    
    688000   1.0867131      318.41085      699.7258      -16382.599    
    689000   1.0665501      329.14173     -262.10745     -16280.158    
    690000   1.0855625      315.43383      768.58269     -16340.029    
    691000   1.0864397      315.67426      1169.3035     -16334.661    
    692000   1.0588945      319.82629     -581.50351     -16199.58     
    693000   1.0739686      318.26859     -163.7153      -16392.85     
    694000   1.0724278      318.83967     -256.39752     -16291.108    
    695000   1.0586418      324.88559     -1195.578      -16242.974    
    696000   1.0750727      321.3478       607.59977     -16336.512    
    697000   1.0604269      322.68794     -974.60747     -16270.371    
    698000   1.078442       317.77827      319.95958     -16341.676    
    699000   1.0676219      331.60807     -273.17218     -16194.345    
    700000   1.0601847      323.17602     -467.18972     -16295.803    
    701000   1.0774397      320.89159      313.15914     -16345.192    
    702000   1.0691022      325.17903      30.036662     -16238.555    
    703000   1.0593483      313.91027     -1014.4471     -16334.359    
    704000   1.0799266      327.03974      529.35793     -16326.76     
    705000   1.057689       323.75131      343.59834     -16158.188    
    706000   1.0707359      315.49663     -107.81871     -16314.248    
    707000   1.0779179      330.38094      287.87636     -16333.271    
    708000   1.0735635      317.22        -605.07211     -16326.729    
    709000   1.0758573      320.54174     -463.92321     -16321.255    
    710000   1.0628212      320.5471      -207.23802     -16324.358    
    711000   1.0700744      314.46386     -207.29349     -16427.001    
    712000   1.0695701      322.02832     -804.16829     -16336.808    
    713000   1.0830269      325.22589      149.29852     -16243.627    
    714000   1.0840683      312.0548       396.69633     -16375.414    
    715000   1.0790937      310.09036      138.10897     -16427.658    
    716000   1.0816091      317.49931      519.8464      -16303.79     
    717000   1.0673762      315.64331      174.29046     -16274.766    
    718000   1.0704904      318.8434      -406.86867     -16407.478    
    719000   1.0712129      319.57056     -509.40203     -16350.872    
    720000   1.0745174      318.43292      121.73056     -16337.113    
    721000   1.0645813      334.37636      424.63876     -16159.533    
    722000   1.0678858      331.74795      305.33038     -16263.289    
    723000   1.0688628      320.20582     -310.72642     -16331.688    
    724000   1.0688199      320.28076     -370.16595     -16359.022    
    725000   1.0559632      325.47181     -457.93193     -16288.108    
    726000   1.0516731      327.06801      538.42896     -16342.222    
    727000   1.0729022      324.52378     -853.45487     -16324.263    
    728000   1.0697623      330.1215       492.33284     -16206.477    
    729000   1.0634831      324.97462     -276.57235     -16266.906    
    730000   1.0818122      318.47944      152.28681     -16381.844    
    731000   1.0787906      335.72196      460.71667     -16191.924    
    732000   1.0701031      314.34955      272.47298     -16303.379    
    733000   1.0589826      325.34349      541.8528      -16269.103    
    734000   1.0754094      317.17932      147.10163     -16394.652    
    735000   1.0663572      316.42784     -39.380924     -16302.131    
    736000   1.0703035      318.39062     -310.72267     -16344.745    
    737000   1.0645331      320.93783      67.149822     -16189.455    
    738000   1.0694311      326.8216       469.80291     -16254.141    
    739000   1.0612909      335.01639     -341.36933     -16161.138    
    740000   1.0647683      322.10345     -137.43799     -16257.352    
    741000   1.0692552      319.59012     -222.04832     -16363.32     
    742000   1.0635551      325.51544      213.7621      -16247.98     
    743000   1.0651466      317.89803      404.61345     -16325.319    
    744000   1.0634306      329.7794       396.25769     -16232.69     
    745000   1.0769771      331.38909      591.51173     -16266.342    
    746000   1.0854386      315.48526      558.91769     -16379.425    
    747000   1.0637877      317.80129      46.405064     -16253.383    
    748000   1.0702618      320.37877      111.56679     -16337.512    
    749000   1.0806221      324.79578     -381.39976     -16332.121    
    750000   1.0750522      330.44751     -280.78624     -16255.958    
    751000   1.0864239      320.66801      146.27276     -16311.403    
    752000   1.0613272      320.15845      137.77304     -16291.589    
    753000   1.0854649      318.53777      1523.7157     -16355.497    
    754000   1.0672928      328.63433     -162.17905     -16274.41     
    755000   1.0751424      323.65612      397.01241     -16351.576    
    756000   1.055655       326.3115      -476.52687     -16310.8      
    757000   1.0589383      323.52008      8.256402      -16302.618    
    758000   1.0654524      332.62499      19.714354     -16260.929    
    759000   1.0602675      314.74324     -656.45823     -16340.431    
    760000   1.0618067      310.46982      401.15144     -16380.969    
    761000   1.0633061      318.26124      203.84147     -16324.637    
    762000   1.0661205      319.95137     -167.08466     -16351.677    
    763000   1.0777495      325.2495       207.66218     -16310.036    
    764000   1.0649027      317.68572     -623.016       -16301.203    
    765000   1.0690517      320.88452     -401.16252     -16307.637    
    766000   1.0692938      324.09625      182.34991     -16305.4      
    767000   1.0652034      324.71775     -241.29443     -16228.024    
    768000   1.0688002      331.10935     -126.71884     -16132.458    
    769000   1.0824751      317.7527      -190.08614     -16343.127    
    770000   1.0772719      319.62051     -1034.6863     -16253.618    
    771000   1.0826942      321.36731     -23.340361     -16258.519    
    772000   1.0828398      318.09073      865.91253     -16343.89     
    773000   1.0695571      310.07587     -346.08631     -16395.234    
    774000   1.064482       327.72719     -280.97918     -16356.449    
    775000   1.0823604      326.32759      1216.1406     -16281.055    
    776000   1.0622629      320.81209     -404.70967     -16277.818    
    777000   1.066342       321.96923      250.44742     -16374.381    
    778000   1.06481        316.40386     -260.33096     -16329.091    
    779000   1.0753919      324.73852     -27.004442     -16285.865    
    780000   1.0867569      329.16753      103.65579     -16231.824    
    781000   1.0753844      323.0258      -512.77243     -16326.185    
    782000   1.0612146      315.70897      408.17425     -16338.466    
    783000   1.0773952      315.71386      596.95711     -16332.479    
    784000   1.0657718      331.55253     -39.573178     -16188.875    
    785000   1.0619829      325.31229      534.50145     -16251.13     
    786000   1.077872       318.31866      475.2045      -16318.271    
    787000   1.0610548      319.00812      490.51708     -16281.482    
    788000   1.0751554      320.24973     -711.19419     -16319.814    
    789000   1.0697913      321.09655      148.22815     -16165.336    
    790000   1.0694755      330.79874     -184.85436     -16200.238    
    791000   1.0777688      322.72035      397.20739     -16305.359    
    792000   1.0558393      333.94687      250.56509     -16179.942    
    793000   1.0724711      325.75304      710.05668     -16356.068    
    794000   1.0688196      320.29471      105.59586     -16173.736    
    795000   1.0609055      316.74746     -184.7586      -16348.853    
    796000   1.0643462      316.22914     -616.42704     -16369.764    
    797000   1.0878436      317.02987     -94.86671      -16484.288    
    798000   1.0560839      322.00807     -464.70322     -16201.854    
    799000   1.0778969      318.24667      489.14051     -16299.9      
    800000   1.069085       323.8178       109.20661     -16260.164    
    801000   1.0818999      324.48447     -686.39287     -16362.719    
    802000   1.0710931      324.94432     -295.90763     -16331.957    
    803000   1.0592309      326.70329     -417.57573     -16206.983    
    804000   1.0847694      315.12283      425.5742      -16441.985    
    805000   1.0821782      325.09353      1115.757      -16352.526    
    806000   1.0674033      315.00688      529.58775     -16403.124    
    807000   1.0761294      317.11251     -57.409243     -16347.219    
    808000   1.0703133      326.61899      76.393037     -16268.689    
    809000   1.0644965      321.49794     -700.29297     -16331.398    
    810000   1.0810616      328.14059      464.50881     -16247.054    
    811000   1.0817344      328.67221     -59.984559     -16260.752    
    812000   1.0516956      325.5065      -576.28695     -16336.978    
    813000   1.0674274      322.88187     -540.84431     -16439.543    
    814000   1.06476        324.16408      65.333007     -16315.043    
    815000   1.0664949      315.97181      374.61563     -16363.872    
    816000   1.0711153      324.04124      834.41372     -16341.383    
    817000   1.0670791      320.1589      -298.8055      -16408.312    
    818000   1.0780027      320.29873      823.38456     -16344.725    
    819000   1.0647884      333.9295      -498.15345     -16249.309    
    820000   1.0637081      328.37796     -1004.9888     -16271.877    
    821000   1.0669034      326.27723     -214.84839     -16249.445    
    822000   1.0647712      322.45103      67.894358     -16334.11     
    823000   1.0614766      334.90791      292.2082      -16219.348    
    824000   1.0658175      330.73785     -346.15226     -16102.346    
    825000   1.07869        327.32623     -72.396594     -16260.98     
    826000   1.0627059      325.4344      -343.67827     -16170.429    
    827000   1.0720483      322.98234      642.23202     -16357.966    
    828000   1.0709124      318.83686      13.523312     -16355.51     
    829000   1.0661312      319.12638      448.52934     -16313.475    
    830000   1.0722589      323.94966      568.97693     -16333.834    
    831000   1.0665632      324.44279      221.03306     -16312.145    
    832000   1.0583478      321.29039     -528.78388     -16196.322    
    833000   1.0781324      327.6461       132.32734     -16292.158    
    834000   1.0711265      314.57446      254.47609     -16350.78     
    835000   1.0817312      323.11329      124.8743      -16322.763    
    836000   1.0796102      334.82269      566.41621     -16288.086    
    837000   1.0619228      319.35159     -76.728577     -16381.978    
    838000   1.0607714      321.91        -70.340225     -16319.73     
    839000   1.0789921      334.49482      267.35717     -16303.31     
    840000   1.0714751      331.38625     -375.51004     -16299.063    
    841000   1.0734043      318.08393     -379.70267     -16380.068    
    842000   1.0580763      317.41925     -802.07112     -16297.175    
    843000   1.0813055      316.03349      237.01657     -16353.031    
    844000   1.0612344      329.06763     -91.469263     -16181.034    
    845000   1.0675299      332.40672     -79.334395     -16159.263    
    846000   1.069228       316.32872      120.56461     -16292.838    
    847000   1.0554484      317.3028      -509.94421     -16253.164    
    848000   1.0697933      324.75147      638.58744     -16251.062    
    849000   1.0779352      318.47338      345.51205     -16353.654    
    850000   1.0729429      338.17474     -194.80897     -16098.654    
    851000   1.0725106      317.77448     -709.94328     -16358.888    
    852000   1.0631926      331.82544     -810.07676     -16240.914    
    853000   1.0731087      329.30919      526.28749     -16222.367    
    854000   1.0718043      327.54447      261.82026     -16262.255    
    855000   1.0665428      318.96444      360.99357     -16314.468    
    856000   1.0776662      317.78288     -173.22368     -16459.249    
    857000   1.0769667      321.31476      30.359054     -16315.069    
    858000   1.0634822      327.62992     -890.82904     -16236.388    
    859000   1.0650175      329.46434     -363.38298     -16262.222    
    860000   1.0775097      310.8065       746.71364     -16372.986    
    861000   1.062893       323.84232      275.97343     -16198.539    
    862000   1.0700306      319.15351      317.18787     -16353.091    
    863000   1.0666196      324.07149     -744.48744     -16274.174    
    864000   1.0712464      317.23782     -287.01983     -16316.541    
    865000   1.0636232      328.55833     -628.21176     -16293.175    
    866000   1.0607431      328.24221      391.3715      -16258.944    
    867000   1.0653886      320.77042      59.103349     -16319.012    
    868000   1.0623829      334.01748     -22.015469     -16251.778    
    869000   1.0643658      326.24085      63.726585     -16301.715    
    870000   1.0840587      318.44383      931.06203     -16246.654    
    871000   1.0658698      315.26717     -1171.8607     -16275.688    
    872000   1.0764013      309.62         278.26937     -16329.667    
    873000   1.0647865      322.79591     -26.528361     -16192.821    
    874000   1.0743007      329.39334      281.8923      -16187.964    
    875000   1.0823521      315.7721       225.94165     -16307.022    
    876000   1.0640246      323.32432     -176.19285     -16291.335    
    877000   1.0795985      328.44971      663.0936      -16235.826    
    878000   1.0627342      336.18713     -816.98839     -16189.319    
    879000   1.0774105      329.40721      1116.1        -16318.656    
    880000   1.0629447      323.06143     -566.21477     -16269.674    
    881000   1.0784358      321.42508      309.37577     -16418.199    
    882000   1.0617962      322.7936      -552.42598     -16243.975    
    883000   1.0579927      332.47456      158.892       -16184.852    
    884000   1.0697746      325.04817      617.04192     -16241.117    
    885000   1.0845419      313.02005      151.30112     -16429.761    
[...]
   9746000   1.0653916      326.1615      -680.7329      -16330.781    
   9747000   1.0685073      331.23106      757.11717     -16320.178    
   9748000   1.041263       323.41488     -250.96488     -16159.011    
   9749000   1.0715114      317.9258      -30.371702     -16354.385    
   9750000   1.0645519      316.20776     -529.35813     -16404.951    
   9751000   1.0685791      315.52304      18.792412     -16347.336    
   9752000   1.0634943      325.69769     -359.36253     -16239.856    
   9753000   1.0683298      317.06141     -246.57902     -16389.447    
   9754000   1.0676327      317.9737      -354.11735     -16409.555    
   9755000   1.0781218      319.95442      431.50627     -16351.428    
   9756000   1.0747187      329.77085      13.672253     -16271.344    
   9757000   1.0762468      323.85558     -129.54465     -16350.874    
   9758000   1.0762572      333.48271      545.1376      -16184.244    
   9759000   1.0696773      324.93576     -71.017168     -16292.49     
   9760000   1.0770972      328.82132      87.318792     -16273.802    
   9761000   1.0718712      315.89666     -69.757873     -16267.958    
   9762000   1.0859224      323.70546      255.53262     -16319.796    
   9763000   1.0579402      322.11776     -829.23954     -16340.333    
   9764000   1.0812116      316.9855      -145.2026      -16304.94     
   9765000   1.0719837      325.61843     -149.56573     -16266.793    
   9766000   1.0710806      318.48187      254.30831     -16249.908    
   9767000   1.0707411      324.10605      171.41311     -16220.847    
   9768000   1.0811854      320.39747      345.76237     -16330.187    
   9769000   1.0670874      328.71969      151.90654     -16211.094    
   9770000   1.0674268      327.09072     -0.42399009    -16245.196    
   9771000   1.0685932      315.67112     -825.26894     -16280.275    
   9772000   1.0683578      321.47185      384.91712     -16278.364    
   9773000   1.0743222      326.11488      51.113137     -16268.603    
   9774000   1.0679079      313.98574     -477.25367     -16399.226    
   9775000   1.058049       326.94092     -299.14936     -16265.782    
   9776000   1.0634891      311.22712     -246.6112      -16350.482    
   9777000   1.080558       324.12894      762.73996     -16256.562    
   9778000   1.0573802      312.41593     -585.60568     -16378.179    
   9779000   1.0598164      325.03407     -91.048        -16243.195    
   9780000   1.0742406      320.1786       31.781329     -16341.882    
   9781000   1.0606673      324.31559     -293.28244     -16250.876    
   9782000   1.0809749      329.78902      267.50515     -16290.999    
   9783000   1.0730705      320.16787      320.08581     -16308.443    
   9784000   1.0656094      324.98093     -315.52262     -16280.323    
   9785000   1.0721085      331.09356      582.82502     -16194.788    
   9786000   1.0620581      327.41036     -235.48537     -16295.506    
   9787000   1.0717982      325.35897     -45.909707     -16200.813    
   9788000   1.0703652      321.23048     -549.43346     -16296.594    
   9789000   1.0794767      336.41516      571.14259     -16189.282    
   9790000   1.0768721      324.71558      481.41782     -16255.068    
   9791000   1.0825894      320.37821      376.85786     -16298.236    
   9792000   1.0806887      330.8142       61.55639      -16259.625    
   9793000   1.0712375      312.2771      -830.25499     -16343.776    
   9794000   1.0818162      316.93864      407.44822     -16427.078    
   9795000   1.0808498      326.94806      346.75858     -16253.118    
   9796000   1.0776707      318.07654     -26.455401     -16370.56     
   9797000   1.0720599      317.64445     -206.14095     -16372.312    
   9798000   1.0606398      319.57324     -511.28676     -16248.931    
   9799000   1.0733775      327.71533      395.74474     -16276.291    
   9800000   1.0697427      320.43217     -251.71265     -16283.677    
   9801000   1.0801247      313.25325     -372.17642     -16261.488    
   9802000   1.0635329      319.33819     -474.84155     -16290.142    
   9803000   1.0635406      319.88836      620.26153     -16342.052    
   9804000   1.084002       318.49797      773.60369     -16303.48     
   9805000   1.0508555      327.07742     -344.74786     -16224.887    
   9806000   1.0813746      314.54148      225.73128     -16395.19     
   9807000   1.0643184      320.47865     -117.10547     -16264.508    
   9808000   1.0548783      333.03707     -213.66989     -16144.862    
   9809000   1.0749753      318.6307       206.76625     -16369.469    
   9810000   1.0712188      327.78057     -161.91119     -16175.719    
   9811000   1.055788       316.69331     -460.41747     -16276.083    
   9812000   1.0651035      318.7317       889.35572     -16315.661    
   9813000   1.060106       316.24487     -422.13544     -16314.807    
   9814000   1.0722964      324.08699     -57.685837     -16259.07     
   9815000   1.0713206      334.61001      471.14818     -16182.513    
   9816000   1.0751812      326.44516      919.94986     -16211.853    
   9817000   1.0641283      334.78606      211.33088     -16205.333    
   9818000   1.0621829      319.38467     -256.82366     -16349.852    
   9819000   1.0817046      337.05105      864.19403     -16229.576    
   9820000   1.0749211      328.87322      56.04872      -16278.972    
   9821000   1.0632486      325.48157      284.92324     -16351.972    
   9822000   1.0751858      318.99051      337.68853     -16313.447    
   9823000   1.0729119      318.36069     -311.83981     -16315.327    
   9824000   1.0764142      320.11158      256.53558     -16380.491    
   9825000   1.064057       322.52409     -662.7977      -16281.869    
   9826000   1.0718983      326.57968      471.48982     -16236.016    
   9827000   1.0731274      325.23328      519.15644     -16322.444    
   9828000   1.0645838      328.73619      223.02022     -16258.574    
   9829000   1.0679965      315.45979      7.9172432     -16322.35     
   9830000   1.0681561      327.12811      252.3249      -16256.27     
   9831000   1.0800999      318.23135      518.83077     -16389.501    
   9832000   1.0742439      318.27868      18.205751     -16368.925    
   9833000   1.0568282      318.57679     -200.22428     -16317.135    
   9834000   1.0617739      331.24856      296.75113     -16265.292    
   9835000   1.0614548      326.14102     -603.75228     -16243.302    
   9836000   1.076386       317.10864      339.12431     -16323.534    
   9837000   1.0784361      326.9077       218.40423     -16279.498    
   9838000   1.0674552      317.54827      166.53033     -16308.102    
   9839000   1.0730631      321.91103      209.55614     -16285.223    
   9840000   1.0682467      321.14964     -237.34803     -16289.277    
   9841000   1.0755232      326.8805       65.952516     -16289.81     
   9842000   1.0723541      324.99795     -54.45013      -16258.511    
   9843000   1.0597514      318.64719     -544.36403     -16300.178    
   9844000   1.0610782      328.81628     -383.55704     -16207.668    
   9845000   1.0674661      326.56356     -629.10994     -16213.276    
   9846000   1.0738025      314.69905      340.68196     -16390.125    
   9847000   1.0709464      329.32643      102.29505     -16194.617    
   9848000   1.0809325      313.65676     -723.0507      -16354.271    
   9849000   1.0778088      322.95121     -36.71368      -16259.559    
   9850000   1.0710233      326.08217     -48.41065      -16233.802    
   9851000   1.0758771      314.85782     -187.76037     -16320.92     
   9852000   1.0589384      326.83353      393.80919     -16216.342    
   9853000   1.0670705      313.20694      1266.9052     -16318.764    
   9854000   1.064867       323.24133      186.1803      -16405.859    
   9855000   1.0720071      321.9096       46.173036     -16461.41     
   9856000   1.0701525      321.8957       56.940263     -16391.456    
   9857000   1.066262       326.88591      184.76359     -16285.02     
   9858000   1.0705114      316.55797      498.41879     -16336.921    
   9859000   1.0660435      324.32608      49.995632     -16308.85     
   9860000   1.0568122      320.82006     -375.15325     -16313.118    
   9861000   1.0663484      324.82137     -202.63215     -16333.399    
   9862000   1.074935       321.80371     -444.98721     -16291.576    
   9863000   1.0659277      318.97885     -516.38589     -16366.553    
   9864000   1.0810171      324.37339      915.47865     -16327.32     
   9865000   1.0688906      324.86737     -420.83097     -16307.304    
   9866000   1.0744915      329.54107      369.73948     -16296.7      
   9867000   1.0730759      325.08261     -18.228697     -16299.219    
   9868000   1.0666561      316.32031     -467.41591     -16348.348    
   9869000   1.0817448      320.69252     -158.84246     -16334.315    
   9870000   1.0813339      321.0718       217.43307     -16362.462    
   9871000   1.0847886      320.72575     -90.623737     -16356.237    
   9872000   1.0746524      322.15746     -295.64473     -16374.83     
   9873000   1.0736857      317.19128      72.44737      -16291.388    
   9874000   1.0723063      322.29097     -22.257894     -16312.765    
   9875000   1.0891956      317.40159      237.17593     -16302.541    
   9876000   1.0726716      324.50648     -222.6166      -16335.155    
   9877000   1.0700652      317.03925     -348.37827     -16333.617    
   9878000   1.0650266      325.00639     -750.09248     -16277.802    
   9879000   1.0582653      323.37082     -675.43708     -16248.769    
   9880000   1.0580713      327.97855      660.22936     -16269.154    
   9881000   1.0695895      315.84816      213.90568     -16390.055    
   9882000   1.0711498      317.71691      141.06299     -16367.906    
   9883000   1.0655342      316.90725     -582.91372     -16399.272    
   9884000   1.0689579      323.54538     -163.08743     -16277.011    
   9885000   1.0678176      326.72512      67.646539     -16316.495    
   9886000   1.075604       337.60405      809.99809     -16135.776    
   9887000   1.0619364      316.61727     -590.59858     -16243.042    
   9888000   1.0773631      311.90315     -210.06235     -16396.622    
   9889000   1.0686688      322.16984      527.14821     -16224.93     
   9890000   1.0551043      329.13418     -180.11139     -16194.245    
   9891000   1.0589712      324.90869      488.52804     -16279.629    
   9892000   1.0595255      325.72938      100.58979     -16423.723    
   9893000   1.0562027      330.93962     -547.34363     -16264.315    
   9894000   1.0664748      316.07729     -837.21527     -16389.712    
   9895000   1.0836054      320.325        279.36427     -16283.605    
   9896000   1.0706693      320.9982      -148.60634     -16361.352    
   9897000   1.0711742      337.97023      269.69661     -16246.283    
   9898000   1.0803588      317.64745      329.07056     -16374.464    
   9899000   1.0712257      330.98401      463.03256     -16271.714    
   9900000   1.0829936      315.74231     -20.765109     -16416.479    
   9901000   1.0703398      320.80522     -876.78286     -16348.565    
   9902000   1.0822728      331.50613      343.36957     -16287.58     
   9903000   1.0775408      324.17912      42.315465     -16321.955    
   9904000   1.0779757      313.30111      89.593151     -16409.581    
   9905000   1.0506876      319.20069     -1064.6702     -16240.98     
   9906000   1.0723832      314.5242      -257.91217     -16402.144    
   9907000   1.059362       326.33343     -1184.4951     -16218.637    
   9908000   1.0900167      319.15051      761.40314     -16421.953    
   9909000   1.0683975      322.02131     -668.20381     -16318.251    
   9910000   1.0655231      316.49682      710.06438     -16355.834    
   9911000   1.06899        316.41446      141.40971     -16242.29     
   9912000   1.0790805      322.15361      550.45948     -16340.181    
   9913000   1.063477       316.21795      38.452403     -16290.406    
   9914000   1.065709       313.86023      1142.2112     -16397.266    
   9915000   1.0601119      328.56909     -182.1671      -16246.029    
   9916000   1.0786875      311.61298      269.59139     -16369.027    
   9917000   1.0591393      324.3883      -916.04713     -16233.083    
   9918000   1.0725193      326.17222     -690.1808      -16239.783    
   9919000   1.0643314      306.66622     -8.2061943     -16424.159    
   9920000   1.0675327      319.94251      167.4466      -16415.53     
   9921000   1.073677       323.56258      43.858715     -16316.504    
   9922000   1.0600794      329.72852     -258.86347     -16192.528    
   9923000   1.0689564      322.64076      363.73313     -16247.538    
   9924000   1.0673237      311.98121     -180.7128      -16331.857    
   9925000   1.0648468      329.77999     -217.5605      -16283.023    
   9926000   1.0843611      315.88667      335.22317     -16439.997    
   9927000   1.0783919      311.81709      334.69323     -16296.928    
   9928000   1.0835212      318.74586      168.44482     -16444.305    
   9929000   1.0653705      318.67265      141.73235     -16203.011    
   9930000   1.08486        329.08898      638.56386     -16256.81     
   9931000   1.0618276      314.27551     -427.47701     -16288.476    
   9932000   1.0662427      330.11644      199.97941     -16222.166    
   9933000   1.082761       322.89223      120.92711     -16249.427    
   9934000   1.0695114      327.97795      185.88154     -16285.796    
   9935000   1.0725903      318.38961      156.80369     -16364.55     
   9936000   1.0726149      321.69003      35.828789     -16302.204    
   9937000   1.0827813      314.10656      695.74825     -16396.062    
   9938000   1.0709613      326.48342      709.64638     -16174.129    
   9939000   1.0707427      319.38663      847.65996     -16302.606    
   9940000   1.0577651      314.39682      28.440708     -16383.213    
   9941000   1.0849194      316.55664      946.58035     -16402.312    
   9942000   1.0597723      333.42409     -888.9447      -16280.986    
   9943000   1.0774104      320.24358      526.08398     -16349.007    
   9944000   1.0629383      327.58787     -729.79457     -16201.685    
   9945000   1.0794098      321.06003      162.09913     -16294.925    
   9946000   1.059237       319.28892     -339.20629     -16283.747    
   9947000   1.0593532      331.69784      141.41038     -16194.641    
   9948000   1.0683376      333.40541      736.74234     -16310.947    
   9949000   1.0733572      324.56243     -430.48196     -16227.765    
   9950000   1.0727707      326.64432     -204.86068     -16322.507    
   9951000   1.0717741      324.09512      1238.2365     -16293.05     
   9952000   1.0639906      318.71796      284.07796     -16301.471    
   9953000   1.0698265      324.17484     -801.56922     -16305.55     
   9954000   1.0682124      331.42573      108.88837     -16189.951    
   9955000   1.0515605      326.8306       170.2584      -16197.018    
   9956000   1.0712391      325.25439      440.13319     -16351.279    
   9957000   1.0607257      314.49728     -643.86465     -16277.03     
   9958000   1.069995       325.01177      555.96203     -16237.226    
   9959000   1.049476       334.96434     -634.14746     -16144.012    
   9960000   1.0638574      315.21149      7.5379952     -16278.601    
   9961000   1.0693834      316.89876      218.6709      -16346.139    
   9962000   1.0706431      333.08925      305.10783     -16208.962    
   9963000   1.0661682      331.31094      285.06307     -16157.754    
   9964000   1.0813477      316.62378     -226.75606     -16352.334    
   9965000   1.0820237      320.80095      214.08721     -16304.086    
   9966000   1.0784455      320.85633      182.52729     -16279.658    
   9967000   1.0642438      330.52486     -344.28604     -16247.38     
   9968000   1.0743633      311.71241      532.67066     -16422.157    
   9969000   1.0626416      322.44118      511.97336     -16307.363    
   9970000   1.0765945      320.88669      869.18568     -16297.827    
   9971000   1.0593064      332.86963     -62.962114     -16225.185    
   9972000   1.0847587      324.49794      822.32859     -16301.868    
   9973000   1.0667944      329.8918       111.00921     -16276.017    
   9974000   1.0610776      321.50928     -240.9739      -16236.037    
   9975000   1.0835603      317.33229      427.73465     -16307.36     
   9976000   1.0757935      318.95742      40.420622     -16373.043    
   9977000   1.0760355      318.06595      435.79557     -16320.776    
   9978000   1.0585093      318.11329      304.81806     -16264.084    
   9979000   1.0713264      319.3725      -537.41588     -16385.86     
   9980000   1.0621184      327.21493     -1062.9705     -16259.297    
   9981000   1.0762105      316.06429     -104.95756     -16400.329    
   9982000   1.0813612      329.36152      756.24394     -16262.352    
   9983000   1.0698935      327.52778     -512.77281     -16234.363    
   9984000   1.0734767      327.31388     -1090.5509     -16293.931    
   9985000   1.0757819      323.34739     -290.66035     -16232        
   9986000   1.065483       325.63606     -484.10633     -16309.646    
   9987000   1.0728933      322.32791     -62.502606     -16387.351    
   9988000   1.069482       323.23373     -1200.1844     -16214.053    
   9989000   1.0640924      330.61289     -599.38829     -16257.814    
   9990000   1.0699434      322.97104      638.87695     -16262.925    
   9991000   1.0628693      322.02757     -53.887758     -16224.168    
   9992000   1.0663076      312.52449     -637.41918     -16462.336    
   9993000   1.0551402      319.57557     -133.06154     -16313.529    
   9994000   1.0532937      326.23023      1118.7879     -16302.473    
   9995000   1.0636905      323.78176      646.89512     -16340.228    
   9996000   1.053772       319.47455     -874.05461     -16320.177    
   9997000   1.0627529      329.45378      155.78862     -16216.542    
   9998000   1.0624741      322.63297      170.44416     -16312.425    
   9999000   1.0764742      331.66268      460.31932     -16231.481    
  10000000   1.0762349      321.51457     -359.81181     -16402.456    
Loop time of 32144.4 on 32 procs for 10000000 steps with 3162 atoms

Performance: 26.879 ns/day, 0.893 hours/ns, 311.097 timesteps/s
99.5% CPU use with 32 MPI tasks x no OpenMP threads

MPI task timing breakdown:
Section |  min time  |  avg time  |  max time  |%varavg| %total
---------------------------------------------------------------
Pair    | 10878      | 12384      | 13323      | 551.3 | 38.53
Bond    | 40.836     | 43.594     | 47.599     |  21.8 |  0.14
Kspace  | 6629       | 7673.5     | 9096.4     | 702.8 | 23.87
Neigh   | 1484.7     | 1608.3     | 1732.1     | 277.2 |  5.00
Comm    | 1712.1     | 1964.8     | 2167.4     | 353.3 |  6.11
Output  | 0.64184    | 2.621      | 63.759     | 678.3 |  0.01
Modify  | 7654.8     | 8030.7     | 8358       | 207.6 | 24.98
Other   |            | 437.3      |            |       |  1.36

Nlocal:        98.8125 ave         111 max          86 min
Histogram: 1 0 5 2 9 3 4 5 1 2
Nghost:        4262.03 ave        4313 max        4202 min
Histogram: 1 0 3 3 8 5 6 1 3 2
Neighs:          39514 ave       48150 max       32800 min
Histogram: 2 1 4 6 7 7 1 2 1 1

Total # of neighbors = 1264447
Ave neighs/atom = 399.88836
Ave special neighs/atom = 2.0341556
Neighbor list builds = 1261258
Dangerous builds = 0
ERROR: Cannot reset timestep with active dump - must undump first (../output.cpp:637)
Last command: reset_timestep 0
srun: error: cmp087: tasks 0-29: Exited with exit code 1
srun: launch/slurm: _step_signal: Terminating StepId=2016070.0
srun: error: cmp177: tasks 30-31: Terminated
srun: Force Terminated StepId=2016070.0
