3324
 Atoms. Timestep: 0
Ow 5.95211 17.1169 28.5398
H 5.42414 16.7073 27.8544
H 5.60077 16.7632 29.357
Ow 21.0677 12.8302 1.63729
H 20.286 12.4801 1.2099
H 21.0015 12.5281 2.5432
Ow 29.2237 4.69831 14.7919
H 29.3644 5.58066 14.4487
H 28.2782 4.64272 14.9305
Ow 17.3714 12.6305 15.1371
H 17.251 13.5464 14.8865
H 17.0979 12.5944 16.0537
Ow 28.6107 5.99128 1.18016
H 28.5229 5.4434 0.400063
H 27.7234 6.04843 1.53448
Ow 0.268721 19.0819 11.9698
H 31.3512 19.7925 11.777
H 31.4744 18.4948 12.5468
Ow 22.4776 5.30429 30.5889
H 22.2313 6.21405 30.4218
H 23.3189 5.36272 31.0418
Ow 0.397568 29.0331 3.80383
H 31.8359 28.1341 4.01113
H 0.966374 28.9503 3.03841
Ow 0.401207 14.8111 24.64
H 31.329 14.5017 24.1571
H 31.7572 15.5006 25.2112
Ow 4.22436 12.1003 24.9026
H 3.59142 12.3223 25.5855
H 3.69184 11.7623 24.1825
Ow 20.9326 28.3542 15.6204
H 21.1574 29.2831 15.674
H 20.256 28.232 16.2865
Ow 7.19477 18.2124 1.17509
H 6.30063 18.498 1.36281
H 7.38523 18.5736 0.309325
Ow 31.4088 14.0854 31.5215
H 30.832 14.783 31.8328
H 31.375 14.154 30.5673
Ow 0.728801 17.0927 9.90406
H 1.64198 17.3397 9.75793
H 0.457736 17.6125 10.6608
Ow 27.2998 11.7782 3.9072
H 27.429 11.2119 3.14639
H 26.545 12.3202 3.67752
Ow 9.51181 29.0775 29.1751
H 9.6313 30.0171 29.3135
H 8.5631 28.9613 29.1231
Ow 25.6027 21.2701 8.3633
H 25.1883 20.7844 7.65017
H 25.76 22.1417 8.00061
Ow 8.85036 8.62921 6.13043
H 8.233 9.0621 5.5407
H 9.3888 8.08434 5.55659
Ow 18.4707 23.301 12.2194
H 17.5911 22.9295 12.2862
H 18.4418 23.8465 11.4334
Ow 30.4348 11.8533 10.4936
H 31.3728 11.9652 10.3392
H 30.3682 11.0331 10.9826
Ow 10.8926 12.1327 1.26017
H 11.1114 12.8838 1.81177
H 11.6418 11.5435 1.3488
Ow 0.328422 14.9098 2.58772
H 31.4586 14.7132 3.33571
H 31.9455 14.1424 2.02067
Ow 5.96572 12.1678 22.4183
H 5.4495 12.4852 21.6774
H 6.07858 12.9356 22.9787
Ow 23.7203 19.5556 30.4439
H 22.9383 19.0099 30.5273
H 24.1102 19.5512 31.3181
Ow 9.51109 23.4285 3.69893
H 9.20323 24.2576 3.33327
H 10.234 23.6745 4.27598
Ow 16.6553 17.0189 2.62823
H 16.1274 17.742 2.28951
H 16.8814 17.284 3.51981
Ow 19.9273 24.8368 1.21032
H 19.8189 25.7668 1.40914
H 19.3627 24.686 0.452272
Ow 21.5978 8.09773 16.8956
H 22.5029 8.20832 16.6048
H 21.0816 8.12576 16.0899
Ow 14.3692 29.3863 13.6065
H 15.2637 29.5261 13.2956
H 13.8416 29.3454 12.8089
Ow 14.5988 15.5209 1.06384
H 13.96 15.9308 0.480605
H 14.787 14.6751 0.657097
Ow 16.1752 3.60552 21.9818
H 16.2296 3.80082 21.0463
H 17.0232 3.21623 22.1954
Ow 9.92986 29.0359 11.4744
H 9.27037 29.6036 11.8731
H 9.96394 29.3139 10.559
Ow 18.0033 30.4063 28.8144
H 17.4785 29.9959 28.127
H 17.3774 30.5949 29.5137
Ow 31.0606 7.84664 6.44457
H 31.3343 7.48071 5.60356
H 30.3276 7.2955 6.71894
Ow 11.3836 31.184 26.6567
H 10.7458 30.796 26.0576
H 11.9588 30.4581 26.898
Ow 23.2705 20.0603 20.3893
H 23.0855 20.43 21.2527
H 23.6308 19.1925 20.572
Ow 6.41567 25.2808 15.5083
H 6.2435 24.4953 16.0277
H 7.02192 24.9898 14.827
Ow 8.43826 7.736 30.5593
H 8.32684 7.51047 31.4829
H 8.19691 6.93923 30.0869
Ow 7.11892 14.9466 19.7222
H 6.45081 14.3328 20.0273
H 7.71929 14.4101 19.2046
Ow 16.7598 2.72654 14.6787
H 16.0718 2.24097 15.1337
H 16.3238 3.09921 13.9123
Ow 26.2405 0.302765 28.8912
H 26.4055 31.0541 28.8803
H 26.3378 0.552628 29.8098
Ow 17.3926 11.6196 24.7431
H 17.4209 11.4843 25.6902
H 16.5418 11.2713 24.4762
Ow 8.92069 21.1657 5.49921
H 8.36562 21.7618 6.00197
H 8.76298 20.3054 5.88823
Ow 14.5673 9.37402 8.95106
H 14.8019 8.50268 8.63171
H 14.7842 9.96142 8.22707
Ow 24.1499 14.0957 15.9175
H 23.7337 13.8011 16.7277
H 24.4576 14.9806 16.1138
Ow 26.2325 29.105 28.732
H 27.0348 28.7935 29.1508
H 26.4269 29.0832 27.795
Ow 27.511 11.0114 12.4628
H 26.825 10.3475 12.392
H 27.2429 11.5553 13.2035
Ow 20.0672 26.1308 29.2738
H 20.9467 26.1209 29.6515
H 20.1354 25.5821 28.4924
Ow 11.5187 8.06193 26.3761
H 12.0387 8.84902 26.5392
H 11.6409 7.88276 25.4437
Ow 4.13421 16.3249 26.5058
H 3.55601 17.0259 26.8067
H 3.79134 16.0836 25.6452
Ow 18.5284 24.474 30.6742
H 19.0167 25.1476 30.2009
H 18.3662 23.7922 30.0218
Ow 19.0067 1.37444 29.3558
H 18.7648 0.633707 28.8
H 19.4265 0.975616 30.1181
Ow 8.28067 2.70015 9.36329
H 7.9639 2.46413 8.49139
H 7.48584 2.85722 9.87302
Ow 0.935084 22.5897 29.4058
H 31.8354 22.4153 28.9001
H 0.715477 23.351 29.9428
Ow 19.0073 9.83507 3.87358
H 18.8694 9.62691 2.94948
H 18.3878 10.5417 4.05547
Ow 21.7123 30.2981 31.3351
H 21.1338 31.0503 31.4603
H 21.3723 29.8613 30.5541
Ow 18.8743 18.6586 29.8732
H 18.4157 17.9188 30.2715
H 18.2648 18.9926 29.215
Ow 1.53983 31.0871 20.038
H 1.74269 0.268333 19.7079
H 2.38537 30.7323 20.3126
Ow 1.37377 3.34047 12.5013
H 1.57514 4.18104 12.9125
H 0.458726 3.17533 12.7284
Ow 30.6171 4.19636 28.5435
H 31.1692 4.94882 28.7563
H 29.7825 4.38172 28.9739
Ow 20.1268 21.7447 19.4973
H 20.4978 22.2577 20.2152
H 20.3112 20.8352 19.732
Ow 2.87503 5.66143 30.3061
H 3.65737 5.41415 30.7991
H 2.34798 6.16304 30.9281
Ow 1.65269 2.23009 6.68521
H 1.87912 1.63457 7.39959
H 1.87796 1.74739 5.88988
Ow 2.21234 20.9496 11.0538
H 1.6953 20.2455 11.445
H 2.93821 20.5016 10.6195
Ow 29.5629 30.073 4.34795
H 30.387 29.7547 3.97956
H 29.1744 30.5984 3.64846
Ow 16.2096 17.8637 22.5645
H 16.287 17.9638 21.6157
H 17.1035 17.6938 22.8616
Ow 28.3155 5.46436 4.75265
H 27.5461 5.41718 4.18506
H 27.9658 5.70079 5.61173
Ow 23.4471 16.1751 13.6881
H 24.2686 16.2194 13.1988
H 22.9358 16.9175 13.3663
Ow 22.5196 22.1568 30.3394
H 21.5883 21.9707 30.2201
H 22.957 21.3283 30.1433
Ow 24.139 11.1156 10.8289
H 24.5347 11.7786 11.3946
H 24.2509 10.2941 11.3073
Ow 11.8393 14.4819 5.66323
H 11.6854 13.5728 5.92017
H 10.971 14.8847 5.6743
Ow 17.2395 29.5155 13.1967
H 17.7652 29.5357 12.397
H 17.5299 30.2801 13.6941
Ow 13.2694 29.847 21.849
H 13.6189 29.246 22.507
H 13.8678 29.7644 21.1065
Ow 12.2199 21.9012 25.5318
H 11.6635 22.6259 25.2465
H 12.364 21.3831 24.7399
Ow 16.2608 3.37581 5.264
H 15.944 4.26528 5.42249
H 16.8251 3.18505 6.01333
Ow 26.0083 26.8777 15.5906
H 26.2781 26.4106 14.7998
H 26.327 26.3339 16.311
Ow 16.3417 23.7127 29.0602
H 16.4629 23.0422 28.3878
H 15.6965 23.3375 29.6594
Ow 4.23695 13.7364 4.12763
H 3.85173 13.1811 4.80549
H 5.18154 13.6212 4.23116
Ow 28.973 27.4861 20.7112
H 29.3099 26.7046 21.1494
H 29.4666 28.2095 21.0974
Ow 6.84355 25.4793 20.676
H 7.08896 25.6798 21.5792
H 6.67179 24.5376 20.6773
Ow 5.62568 1.92657 17.9492
H 5.66542 1.11245 17.4473
H 4.87752 1.81105 18.5349
Ow 13.5675 13.7775 23.6625
H 14.2231 14.2179 24.2032
H 12.7509 13.8687 24.1534
Ow 1.59387 9.56669 10.2153
H 1.87158 10.3982 10.5997
H 0.962467 9.81367 9.5396
Ow 14.5499 14.0174 26.7824
H 15.0011 14.1995 25.9581
H 14.5627 14.8513 27.2524
Ow 28.8198 31.0273 25.5006
H 28.7966 30.0773 25.6161
H 29.0885 31.3664 26.3545
Ow 18.1858 16.0705 16.5084
H 18.0589 16.7641 15.861
H 18.9624 15.5995 16.2065
Ow 0.593011 20.8125 22.5524
H 31.8816 19.9851 22.8116
H 0.371861 21.4199 23.2582
Ow 18.8257 24.4528 5.44589
H 18.8998 25.3269 5.06285
H 19.7274 24.2008 5.64506
Ow 28.2736 6.6195 8.04435
H 27.7318 5.83463 7.9624
H 27.7237 7.32693 7.70758
Ow 18.4014 2.91121 7.23175
H 18.1022 3.45933 7.95719
H 18.9772 2.26497 7.64075
Ow 15.8938 26.8803 6.34034
H 15.3006 27.6266 6.42647
H 16.263 26.7647 7.21607
Ow 8.69406 15.176 31.0232
H 9.20126 15.9476 31.2755
H 9.35232 14.5257 30.7782
Ow 0.426741 14.8783 28.9893
H 31.7049 15.7191 29.1794
H 31.9081 14.7073 28.0719
Ow 29.3307 29.1698 9.44069
H 29.8396 28.3687 9.56518
H 29.733 29.5944 8.683
Ow 15.3197 11.5526 10.6542
H 15.2405 11.5183 11.6075
H 15.4174 10.6382 10.3885
Ow 31.1508 30.797 24.1192
H 31.0629 31.4283 23.4051
H 30.378 30.943 24.6648
Ow 0.606597 22.2625 25.1235
H 31.9446 21.8359 25.9029
H 31.8798 23.1218 25.1066
Ow 25.2386 5.28353 5.53777
H 25.1423 4.9595 4.6422
H 25.7836 4.62781 5.97285
Ow 7.08307 17.9292 13.9457
H 6.14253 17.7534 13.9184
H 7.48025 17.1806 13.5008
Ow 5.20779 25.6412 24.7232
H 5.48888 24.7554 24.9526
H 4.59897 25.5186 23.9947
Ow 6.85842 10.8145 5.88855
H 6.65247 10.3425 5.08167
H 6.8051 11.739 5.64608
Ow 2.3146 20.2513 29.1156
H 1.84336 19.6749 29.7172
H 1.84816 21.0856 29.1678
Ow 23.2672 13.0901 22.6846
H 22.6951 12.3282 22.7772
H 23.6378 13.2194 23.5576
Ow 30.6681 1.44094 6.80453
H 31.5531 1.8044 6.83338
H 30.1613 2.08233 6.30642
Ow 18.1549 8.10309 19.6437
H 17.4593 7.45277 19.7408
H 18.8723 7.76941 20.1826
Ow 28.3477 15.805 3.39611
H 27.8195 15.4988 4.13334
H 28.6603 15.0039 2.97566
Ow 11.1404 4.60609 10.9247
H 12.0579 4.67706 11.1881
H 10.8179 5.5073 10.9331
Ow 28.5312 24.6181 18.1911
H 28.5285 25.1287 17.3814
H 28.2055 23.7559 17.9322
Ow 2.58001 24.2699 11.8688
H 1.91919 23.8954 11.2865
H 3.38663 24.2605 11.3535
Ow 20.4761 12.4082 25.2488
H 19.5316 12.27 25.1779
H 20.6962 12.1133 26.1325
Ow 23.8212 9.8258 4.54147
H 23.8368 10.7816 4.59014
H 22.9854 9.62044 4.12259
Ow 7.11814 29.8919 4.0201
H 6.7986 29.365 4.75256
H 7.92057 29.4517 3.73984
Ow 31.9232 16.9669 19.5093
H 31.2953 17.6422 19.2525
H 0.781003 17.3901 20.1667
Ow 25.3922 3.19354 29.2401
H 24.5462 3.63553 29.3115
H 26.0374 3.88417 29.3921
Ow 25.0584 8.98635 2.27499
H 24.7109 9.26561 3.12207
H 25.3119 8.0732 2.40908
Ow 19.1854 28.5391 6.96675
H 18.8773 28.5298 6.06054
H 20.0425 28.1142 6.93315
Ow 2.59497 7.00859 19.2435
H 3.18187 7.60868 18.7834
H 2.12187 7.56376 19.8634
Ow 19.7297 15.338 2.64741
H 20.141 14.9111 1.89585
H 18.8434 14.9772 2.67292
Ow 27.4541 19.5227 15.1638
H 27.0178 19.1951 14.3773
H 27.1288 20.4174 15.2637
Ow 4.36494 11.0497 30.4842
H 4.88838 10.2526 30.567
H 4.99155 11.7215 30.2156
Ow 10.9701 14.1669 20.5352
H 10.4985 14.9586 20.2763
H 11.0393 13.6545 19.7297
Ow 12.9458 29.3217 16.1712
H 13.5047 29.0502 16.8993
H 12.1404 29.628 16.5881
Ow 1.84593 11.799 31.1699
H 1.32679 10.9986 31.2481
H 2.74264 11.4915 31.0373
Ow 5.50098 30.9003 16.9172
H 6.42381 30.7424 16.7177
H 5.05367 30.8011 16.0768
Ow 0.356405 28.3109 18.771
H 31.2691 28.0823 18.268
H 0.827226 28.9312 18.2144
Ow 2.11681 19.6801 14.5404
H 2.7693 19.0128 14.3278
H 1.38951 19.1907 14.9249
Ow 24.4532 28.3296 7.25285
H 25.2787 27.9704 7.57795
H 23.8156 28.1223 7.93606
Ow 8.40184 21.3615 31.5847
H 9.3199 21.1844 31.3795
H 7.94136 20.5602 31.3354
Ow 4.24968 1.58533 25.7745
H 5.18154 1.732 25.9369
H 3.81977 1.84955 26.5879
Ow 15.3327 16.3736 13.4895
H 14.9787 15.8413 14.2021
H 15.2782 17.2731 13.8121
Ow 12.6782 22.6417 11.1867
H 12.0722 22.6721 11.927
H 12.1502 22.9061 10.4333
Ow 21.5046 18.023 30.8294
H 21.1363 17.1496 30.6952
H 20.7769 18.6198 30.6544
Ow 8.34177 11.4967 16.0404
H 7.96457 12.2777 15.6356
H 7.77386 10.7807 15.7556
Ow 18.2398 30.8102 17.954
H 17.8087 30.2006 18.553
H 19.1665 30.5742 17.9974
Ow 12.5261 19.884 10.4133
H 13.4462 19.7146 10.2109
H 12.4369 20.8348 10.3469
Ow 2.70702 8.59643 24.1905
H 2.20977 9.24138 24.6937
H 3.05277 7.99338 24.8485
Ow 0.610711 24.9184 0.510994
H 0.423709 24.0004 0.70807
H 1.07749 25.239 1.28263
Ow 24.8164 17.5812 21.0353
H 24.1804 16.9495 21.3711
H 25.6466 17.3212 21.4346
Ow 31.8423 19.972 8.35637
H 0.764777 19.3656 8.76655
H 30.9934 19.743 8.73477
Ow 26.2294 8.52815 26.5124
H 26.261 7.61148 26.2388
H 25.7284 8.96652 25.8246
Ow 14.6404 15.4231 4.10623
H 14.0242 16.1187 4.33589
H 14.6787 14.8693 4.88604
Ow 14.1118 26.9007 9.93555
H 15.0084 27.229 10.0037
H 13.6025 27.4727 10.5098
Ow 17.6061 9.01821 12.4271
H 18.022 9.38571 11.6472
H 17.2791 8.16402 12.1448
Ow 22.3514 30.9096 15.4874
H 22.4424 31.7961 15.1378
H 22.277 31.0312 16.434
Ow 0.832706 22.8874 9.89959
H 1.25664 22.0329 9.97986
H 31.6529 22.7571 10.2675
Ow 1.64763 26.0134 19.2646
H 0.886407 25.4374 19.1941
H 1.27672 26.8879 19.3829
Ow 14.3276 6.97887 7.82074
H 14.5263 6.46604 8.6042
H 13.3718 7.02712 7.80157
Ow 23.5673 1.40766 27.4469
H 23.1305 1.60205 28.2762
H 23.1251 1.9648 26.8064
Ow 30.6266 29.7239 31.4946
H 30.0137 30.4572 31.441
H 30.5077 29.251 30.6708
Ow 20.0934 6.90931 20.9257
H 20.5917 6.14811 20.6281
H 20.668 7.33951 21.559
Ow 29.8616 25.1938 30.2645
H 29.9162 24.7175 29.436
H 29.5758 24.5377 30.9002
Ow 22.9855 31.4779 25.1779
H 22.7231 0.405291 24.4989
H 23.9394 31.5489 25.2129
Ow 6.59317 22.5113 20.9487
H 6.11857 22.0218 20.2769
H 7.51448 22.4222 20.7048
Ow 5.33089 24.4034 7.31502
H 4.47196 24.0573 7.55755
H 5.14393 25.0639 6.64792
Ow 14.0619 24.7462 12.6933
H 13.2129 24.9348 13.0933
H 14.7009 25.1277 13.2953
Ow 6.61458 18.6656 18.3145
H 6.29097 19.4025 17.7963
H 5.9877 17.9616 18.1482
Ow 12.6793 17.6978 22.0707
H 12.3098 16.9029 22.4552
H 13.5653 17.448 21.8081
Ow 19.3321 18.6011 2.90919
H 19.3207 17.7731 2.42892
H 18.7243 18.4653 3.63602
Ow 27.1937 1.96239 31.0941
H 26.8051 2.08531 0.265971
H 26.5829 2.39063 30.4943
Ow 27.7344 15.7654 19.4274
H 27.5949 16.4435 18.7662
H 27.3455 16.1245 20.225
Ow 25.0204 22.5092 23.8736
H 25.0143 22.4625 24.8296
H 24.2407 22.0235 23.6048
Ow 24.153 20.8344 17.2248
H 24.2928 20.6389 16.2983
H 23.4295 20.2637 17.4839
Ow 17.3619 5.8527 31.5436
H 18.0975 6.389 31.2476
H 17.298 5.15301 30.8935
Ow 29.0263 13.4328 2.42336
H 29.8483 12.9423 2.43052
H 28.4254 12.9016 2.94583
Ow 15.3103 31.004 16.2137
H 15.6782 30.2839 16.7259
H 16.0565 31.3626 15.7335
Ow 26.4213 2.35342 4.79396
H 27.3727 2.26418 4.8499
H 26.1999 2.0215 3.92388
Ow 11.3297 26.7712 16.0077
H 11.5006 25.9003 15.649
H 12.1948 27.1744 16.0811
Ow 30.6667 11.349 23.3729
H 31.1746 10.8033 23.9733
H 30.4205 10.7581 22.6612
Ow 14.1276 0.589036 25.7491
H 14.8241 0.399293 25.1206
H 14.491 0.32966 26.5958
Ow 28.7668 23.6225 0.800391
H 28.7236 23.3676 1.72203
H 28.0638 24.2636 0.695758
Ow 5.96007 9.34428 24.5712
H 6.67905 9.38238 25.202
H 5.20253 9.06806 25.0871
Ow 0.563588 22.348 1.8865
H 0.381525 21.8998 2.7125
H 1.18926 21.7793 1.43772
Ow 22.9313 21.1612 22.7782
H 22.3615 20.4065 22.9262
H 22.3302 21.8846 22.6007
Ow 4.21985 14.9509 1.58068
H 3.41935 15.29 1.18009
H 4.92509 15.4465 1.16434
Ow 25.408 18.5428 28.6698
H 25.2823 18.7869 27.7528
H 24.773 19.075 29.1491
Ow 20.2977 22.9325 16.8207
H 20.5071 22.2392 17.4467
H 20.3594 22.5091 15.9644
Ow 23.7294 26.4023 13.3458
H 24.1468 27.0733 13.8861
H 22.8188 26.6875 13.2699
Ow 15.8246 22.46 12.2223
H 15.5644 21.9717 13.0034
H 15.7495 21.8275 11.5078
Ow 24.8559 13.1298 1.87117
H 24.2522 13.5726 1.27471
H 25.6966 13.1409 1.4136
Ow 2.02086 4.70053 27.9452
H 1.36312 5.2459 27.5137
H 2.32011 5.22686 28.6866
Ow 26.9772 4.34491 7.79387
H 26.0499 4.3696 8.03026
H 27.3397 3.63172 8.31922
Ow 9.64484 19.7489 13.8526
H 9.86098 20.6522 13.6209
H 9.11927 19.8247 14.649
Ow 25.0939 24.3222 11.7791
H 24.4066 23.8931 11.2692
H 24.7766 25.2165 11.9048
Ow 3.01541 23.4052 5.34259
H 2.3228 22.8073 5.62397
H 3.81504 22.8803 5.37927
Ow 7.22827 6.22292 19.4307
H 6.49795 6.78097 19.1633
H 7.92789 6.42999 18.8111
Ow 1.26615 5.23007 3.70342
H 2.19244 5.13997 3.92732
H 0.813468 5.22156 4.54679
Ow 16.7765 21.1584 8.03065
H 16.4796 22.0363 7.79105
H 17.2338 20.839 7.25272
Ow 23.9057 28.3175 19.5988
H 24.2964 27.6001 19.0998
H 24.432 28.3694 20.3967
Ow 1.53647 8.32459 2.59967
H 1.34424 7.38852 2.54689
H 2.49223 8.3745 2.58235
Ow 17.3845 10.2245 21.2258
H 18.1801 10.7539 21.172
H 17.5941 9.42629 20.7408
Ow 4.41072 7.63052 6.46007
H 3.78648 8.2664 6.11075
H 5.12324 7.61757 5.82099
Ow 9.5835 17.6583 23.2631
H 8.90557 18.1896 23.6808
H 10.2784 17.5974 23.9186
Ow 26.4982 12.9627 15.0859
H 25.5667 13.1549 15.1935
H 26.8864 13.7968 14.8217
Ow 6.56773 2.48492 22.3824
H 6.79897 2.98607 23.1645
H 6.4423 3.14634 21.7019
Ow 14.4326 27.3336 22.6368
H 14.5035 27.3014 21.6828
H 13.6024 26.8983 22.8306
Ow 13.1685 2.12907 11.4763
H 13.6622 1.30999 11.5167
H 13.8329 2.80284 11.3318
Ow 14.8357 18.3977 19.7084
H 14.8727 19.2414 20.159
H 15.0373 18.604 18.7957
Ow 13.4004 11.7344 19.705
H 13.8897 11.1275 20.2605
H 13.7766 12.5931 19.8981
Ow 26.4965 28.6583 25.9583
H 26.8087 28.5381 25.0614
H 26.635 27.8085 26.3766
Ow 22.858 9.53819 31.7286
H 23.7555 9.34195 0.302529
H 22.4072 9.7609 0.848809
Ow 27.3291 2.42582 9.66372
H 26.9784 2.84447 10.4498
H 28.217 2.16418 9.90702
Ow 20.8746 8.9305 14.3129
H 21.607 8.80158 13.7102
H 20.9097 9.86024 14.5379
Ow 17.4818 5.33135 20.0448
H 17.5109 5.52535 20.9817
H 18.3698 5.04463 19.8314
Ow 18.799 26.8912 11.3632
H 19.5275 26.7506 10.7585
H 18.2164 27.4941 10.9012
Ow 11.3931 30.7741 31.7079
H 10.6172 30.2664 31.9456
H 11.2301 31.0536 30.8071
Ow 30.6056 4.26799 2.78482
H 31.5286 4.48809 2.91108
H 30.1986 5.0893 2.50909
Ow 6.95022 8.29032 8.47104
H 7.5014 9.04253 8.68734
H 7.38677 7.87998 7.72463
Ow 31.8956 11.4285 14.1702
H 31.2983 12.1638 14.3066
H 31.9446 10.9978 15.0237
Ow 10.8579 25.7326 2.12055
H 10.8475 26.2388 2.93287
H 11.5848 26.1003 1.61789
Ow 28.3034 27.4113 30.1108
H 28.6287 26.5219 30.2499
H 29.009 27.8539 29.639
Ow 25.0505 3.52239 24.0864
H 25.5753 4.31957 24.1596
H 24.2639 3.70488 24.6004
Ow 27.7706 6.12703 22.9612
H 28.2874 6.84319 23.3304
H 27.3153 6.51899 22.216
Ow 1.91811 16.0101 31.9263
H 1.31648 15.4246 0.691549
H 2.31959 15.4612 31.2527
Ow 0.893472 7.86079 21.8296
H 31.793 8.03552 21.3254
H 1.48721 8.57492 21.5968
Ow 25.481 25.8416 18.0004
H 25.606 25.3514 18.8131
H 24.9319 25.2738 17.4597
Ow 24.1851 1.57858 21.9203
H 23.2479 1.75557 22.0018
H 24.5932 2.13765 22.5815
Ow 21.3063 30.2871 18.3302
H 21.2893 30.2423 19.2862
H 21.2825 31.2236 18.1335
Ow 3.73511 23.5296 16.7574
H 4.2494 22.9202 16.2278
H 3.26413 24.0642 16.1184
Ow 8.37486 26.8049 25.7845
H 7.99242 27.4319 26.3983
H 9.31852 26.8708 25.9309
Ow 1.89989 25.3453 14.9182
H 1.1684 24.9578 15.3989
H 1.95311 24.8352 14.11
Ow 9.9278 18.5852 17.9973
H 10.4732 19.1008 17.4033
H 9.69671 19.1933 18.6996
Ow 15.5142 4.61031 16.3511
H 15.4032 4.34041 17.2627
H 14.7262 5.11632 16.1529
Ow 7.27231 1.6898 26.2677
H 7.25475 0.761792 26.5017
H 7.27495 2.14905 27.1076
Ow 31.9345 7.53756 11.7909
H 31.6699 8.1385 12.4874
H 0.804823 8.06228 11.2229
Ow 5.9604 8.91425 30.9994
H 6.77803 8.55987 30.6497
H 5.95724 8.64779 31.9188
Ow 2.21858 25.8981 6.3054
H 2.52982 25.0569 5.97109
H 2.90992 26.5186 6.07473
Ow 10.59 2.15039 6.2464
H 10.3455 3.07585 6.24528
H 9.77814 1.68745 6.03931
Ow 8.99751 22.4988 28.2324
H 8.5936 22.9562 28.97
H 9.7026 23.0798 27.9468
Ow 7.07054 4.68403 24.4102
H 7.0305 5.6204 24.2156
H 6.41644 4.55341 25.0967
Ow 30.9815 21.082 3.95638
H 30.1528 21.5406 4.09457
H 30.7395 20.157 3.91247
Ow 2.66565 14.4033 14.134
H 2.45216 14.9004 14.9237
H 2.20967 14.8641 13.4297
Ow 0.768954 21.8979 6.36451
H 0.679231 21.1868 6.99899
H 31.7924 21.7178 5.70601
Ow 1.80742 28.8044 31.5093
H 2.31042 29.6185 31.5342
H 0.898756 29.08 31.6304
Ow 14.1215 21.9587 7.58098
H 13.407 21.5308 8.05278
H 14.4064 21.31 6.93731
Ow 25.9004 24.917 23.3136
H 25.6148 24.0061 23.3856
H 26.4055 24.9467 22.501
Ow 15.0227 2.53492 28.1439
H 14.6017 3.08921 27.4869
H 14.2969 2.16396 28.6457
Ow 4.52682 27.102 4.85895
H 4.33021 27.5938 4.06162
H 5.12097 26.4082 4.57262
Ow 24.0807 22.8236 19.3609
H 24.2501 22.355 18.5436
H 23.5407 22.2229 19.8744
Ow 17.4372 28.4676 31.2599
H 18.2736 28.7796 30.9145
H 17.6102 28.2909 0.490283
Ow 15.2326 22.4603 26.3606
H 14.5663 23.0753 26.0537
H 14.7719 21.6246 26.435
Ow 10.47 20.5891 2.93549
H 10.8523 20.5419 2.05919
H 11.2144 20.7567 3.51339
Ow 26.3897 23.9686 30.864
H 26.4961 23.0242 30.9783
H 25.5717 24.0604 30.375
Ow 29.433 14.3886 11.8648
H 28.6875 14.7494 12.3447
H 30.1934 14.847 12.2226
Ow 30.9982 5.17482 5.99873
H 30.2769 5.18263 5.36954
H 30.6123 4.82549 6.80198
Ow 16.2554 14.6698 21.4665
H 15.3004 14.7333 21.4805
H 16.4943 14.8476 20.5568
Ow 1.64067 29.9808 27.8039
H 2.54315 30.2492 27.9766
H 1.6586 29.0257 27.8644
Ow 15.4792 29.308 9.20268
H 14.539 29.3165 9.02326
H 15.8423 29.9674 8.61143
Ow 13.6436 7.79493 17.9123
H 14.3427 8.42083 17.7225
H 13.9549 7.31221 18.678
Ow 12.0438 16.6746 18.8532
H 12.537 17.184 19.4962
H 12.6721 16.4998 18.1525
Ow 3.1801 10.0476 28.1929
H 3.62414 10.173 29.0315
H 3.12486 10.9261 27.8168
Ow 2.78189 18.5437 27.0843
H 2.5538 19.3217 27.5932
H 1.94447 18.2201 26.7522
Ow 30.6902 24.79 24.6966
H 30.6516 24.959 23.7551
H 31.37 25.3816 25.0192
Ow 24.8312 29.2836 10.2916
H 24.7004 28.4749 9.79644
H 24.1606 29.2582 10.9742
Ow 8.22409 12.0859 31.6651
H 7.73359 12.8402 31.3383
H 8.16074 11.4367 30.9646
Ow 12.2835 21.9918 28.1115
H 12.2893 21.909 27.1578
H 12.6354 21.1593 28.4267
Ow 4.71888 16.3112 20.1194
H 5.48282 15.9933 19.6378
H 5.0854 16.7645 20.8786
Ow 22.4612 2.9935 25.4139
H 22.0902 3.39167 24.6264
H 22.1666 3.55708 26.1294
Ow 22.8689 10.4595 17.9529
H 22.377 9.68087 17.6921
H 23.3447 10.1908 18.7389
Ow 20.0958 21.9832 14.2136
H 20.7238 21.2658 14.2987
H 19.2393 21.5567 14.2389
Ow 5.829 28.5213 1.90697
H 6.12197 29.3454 2.29576
H 6.1275 28.5649 0.998535
Ow 28.8683 22.606 22.7119
H 28.0776 22.211 22.3444
H 29.2056 21.9474 23.3192
Ow 11.6636 10.2868 29.9932
H 12.2063 11.0241 29.7137
H 11.92 10.131 30.9022
Ow 4.15121 4.14376 7.14374
H 3.97683 3.27417 6.78363
H 3.90951 4.07394 8.06731
Ow 16.1897 24.9602 3.74945
H 16.6599 25.7546 3.49644
H 15.7585 24.6701 2.9457
Ow 6.01028 16.0866 31.1448
H 6.34549 16.7008 31.7979
H 6.68877 15.4148 31.0767
Ow 30.5919 15.2353 5.11238
H 30.5212 15.6317 5.98078
H 29.8338 15.57 4.63333
Ow 31.6525 1.31752 2.81344
H 0.429115 0.915637 3.54351
H 0.642866 1.71774 2.27747
Ow 2.44616 8.28712 15.4775
H 1.75906 8.20787 16.1392
H 3.07336 8.90373 15.8554
Ow 2.95585 12.7932 27.4167
H 2.7997 12.9518 28.3477
H 2.11457 12.9751 26.9979
Ow 20.7883 18.8882 19.7282
H 20.4486 18.5583 20.5601
H 21.666 19.2079 19.9372
Ow 18.4302 7.02317 4.18847
H 18.7256 6.1806 4.53367
H 17.5565 6.84655 3.83945
Ow 23.9696 10.9473 27.6923
H 24.7855 11.2029 27.2618
H 23.3997 11.7106 27.599
Ow 8.31777 4.91352 15.2562
H 7.8091 5.68156 15.5163
H 7.91033 4.62055 14.4411
Ow 29.7414 7.85569 3.75292
H 29.5325 8.13189 2.86064
H 29.1848 7.09176 3.90415
Ow 0.370009 9.7938 0.584632
H 0.77522 9.24616 1.25691
H 31.1587 9.48724 0.539236
Ow 20.7885 7.72403 25.9346
H 21.7109 7.95363 26.0467
H 20.7608 7.23697 25.111
Ow 4.75959 0.560189 22.9722
H 5.25402 1.35536 22.7735
H 4.79921 31.7398 22.1661
Ow 17.2366 9.01544 6.42611
H 17.0663 8.61206 7.27732
H 17.0534 9.94535 6.56021
Ow 24.3645 23.9032 29.251
H 23.5751 23.3652 29.3118
H 24.531 23.9797 28.3115
Ow 2.70158 14.4719 21.3772
H 1.91547 14.2219 20.8916
H 2.98383 15.2916 20.9714
Ow 21.352 19.3388 14.6387
H 20.7051 18.801 15.0954
H 21.308 19.0458 13.7284
Ow 8.07934 15.1803 23.2243
H 8.51161 15.9509 22.8562
H 8.64637 14.4483 22.9817
Ow 25.8041 2.97192 15.0009
H 26.3599 2.20693 15.1494
H 25.8418 3.45935 15.8239
Ow 6.84937 26.2743 10.6664
H 6.37683 25.448 10.7673
H 7.72971 26.0156 10.3938
Ow 9.77465 15.5348 17.649
H 10.1395 15.6019 16.7665
H 8.85182 15.321 17.5115
Ow 21.3229 24.2861 12.8641
H 21.6418 24.8687 12.1747
H 22.0939 24.1063 13.402
Ow 31.4942 2.92092 19.254
H 31.4203 3.59558 19.929
H 31.4096 3.39741 18.4282
Ow 28.2993 27.1925 3.23467
H 29.2344 27.1588 3.03289
H 28.1107 28.1245 3.34374
Ow 15.7805 30.3637 4.56606
H 16.6667 30.0501 4.38555
H 15.8129 31.3004 4.37179
Ow 15.0389 26.847 14.3121
H 14.463 26.5441 15.0141
H 14.6615 27.6822 14.0357
Ow 12.1882 1.01616 17.6858
H 12.3355 1.1627 16.7514
H 11.5315 0.320575 17.719
Ow 7.79478 19.0385 9.94489
H 7.77093 19.9573 9.6773
H 6.9545 18.6825 9.65615
Ow 3.73841 3.97885 23.3755
H 4.47013 3.77805 23.959
H 3.47974 3.13094 23.0144
Ow 10.6648 13.5625 30.335
H 11.4412 14.1047 30.4742
H 10.6961 12.9136 31.038
Ow 18.3971 0.460993 5.608
H 18.459 31.3326 6.09343
H 18.4237 1.13991 6.28226
Ow 4.63553 13.1725 20.2148
H 4.73898 12.8097 19.335
H 3.72116 13.4531 20.2527
Ow 5.72834 21.1033 23.4832
H 5.78513 21.887 22.9365
H 5.76383 21.4337 24.3807
Ow 21.7441 4.1774 28.112
H 21.9205 4.5406 28.9798
H 20.9862 4.66908 27.7955
Ow 6.94024 18.295 4.19871
H 6.32453 17.6534 4.55308
H 7.06622 18.9244 4.90882
Ow 18.5977 8.93219 23.2301
H 18.9225 9.63094 23.798
H 18.1546 9.38998 22.5157
Ow 4.52358 21.2387 19.2659
H 4.17835 20.8014 18.4876
H 4.13639 22.1138 19.2411
Ow 15.3989 2.92155 18.6245
H 14.7595 2.33092 19.0228
H 16.2396 2.47892 18.7406
Ow 3.26517 3.42819 9.84789
H 2.94702 3.57583 10.7385
H 2.94749 2.55411 9.62136
Ow 3.74137 24.7946 22.4517
H 3.4366 23.9227 22.7029
H 4.0306 24.6954 21.5446
Ow 9.46767 10.9907 25.7259
H 9.22951 10.2564 26.2918
H 9.57116 11.7309 26.324
Ow 3.55735 8.73568 12.8863
H 3.43615 9.67357 13.0344
H 4.2573 8.68398 12.2355
Ow 31.3628 0.500231 21.8468
H 0.450305 1.05253 21.8338
H 30.6331 1.11608 21.7808
Ow 14.7907 9.85969 5.04333
H 15.3174 9.38437 5.68589
H 13.9509 9.40044 5.03448
Ow 3.66795 7.78647 9.29322
H 3.14147 7.24152 8.70833
H 3.0277 8.31264 9.77238
Ow 8.58062 27.3615 19.2393
H 8.14295 26.5423 19.4709
H 7.86791 27.9898 19.1228
Ow 20.8231 12.5015 12.578
H 21.4959 13.1014 12.9001
H 20.505 12.0541 13.3622
Ow 4.68102 20.8711 5.13664
H 5.53367 21.1107 5.49976
H 4.13519 20.6937 5.90271
Ow 27.2521 23.8543 28.0397
H 27.033 22.9884 27.6952
H 27.1938 23.7561 28.99
Ow 28.2846 6.21581 18.8562
H 28.646 7.09784 18.7679
H 27.508 6.32841 19.4043
Ow 27.3411 25.9731 5.53909
H 27.764 26.4387 4.81748
H 27.8961 26.1522 6.29816
Ow 10.3703 16.0189 15.0616
H 9.92101 15.274 14.6621
H 11.2534 15.6973 15.2431
Ow 4.34175 8.10218 26.5708
H 4.12304 8.93711 26.9847
H 4.65386 7.55237 27.2895
Ow 29.5095 7.33913 13.667
H 29.4688 7.93023 14.4188
H 29.7818 7.89652 12.938
Ow 3.91141 17.3132 17.5713
H 3.86095 16.9004 18.4335
H 3.27035 16.84 17.0409
Ow 9.09163 11.6678 3.48305
H 8.48041 12.1321 4.05496
H 9.891 11.5848 4.00311
Ow 5.01353 17.9901 22.5117
H 5.75739 18.3378 22.0197
H 5.40402 17.6019 23.2947
Ow 19.9612 5.82306 23.8525
H 19.5805 6.22489 23.0716
H 19.2369 5.34122 24.2516
Ow 15.6287 16.0482 7.27429
H 16.5811 16.1111 7.20251
H 15.4407 15.1161 7.16454
Ow 16.9648 17.9504 11.118
H 17.7329 17.8734 10.552
H 17.2156 17.5015 11.9254
Ow 24.1137 28.5186 31.0535
H 24.9964 28.1573 31.1344
H 23.6281 27.8575 30.5601
Ow 10.8015 17.9986 27.6294
H 11.6697 17.9095 28.0225
H 10.2902 17.286 28.0127
Ow 4.61069 21.8992 29.2002
H 4.00038 21.2106 28.9363
H 5.42597 21.6838 28.7472
Ow 28.6357 3.10692 25.545
H 28.6459 4.02233 25.8247
H 29.4843 2.76176 25.8225
Ow 23.2302 8.48822 9.03618
H 23.3233 9.38616 8.71794
H 23.8384 8.43054 9.77309
Ow 19.5864 6.04672 27.8175
H 19.5676 6.63545 28.572
H 20.1479 6.48977 27.1814
Ow 7.47268 9.69111 27.1411
H 7.7969 8.81973 26.9134
H 7.12556 9.59388 28.0278
Ow 28.8581 13.3193 20.5103
H 29.1856 13.5134 21.3885
H 29.0707 12.3961 20.3734
Ow 8.91021 10.3027 29.7587
H 9.85245 10.384 29.611
H 8.77901 9.3778 29.9677
Ow 18.6364 15.6887 19.59
H 19.4297 15.8803 19.0899
H 18.7693 16.1296 20.4291
Ow 13.1473 28.9946 27.3963
H 13.125 28.6598 28.2928
H 12.545 28.4284 26.9137
Ow 16.095 16.1412 28.0067
H 15.3897 16.6447 28.4133
H 16.265 15.427 28.6208
Ow 17.2123 6.91477 26.3229
H 17.0202 7.83663 26.495
H 17.8703 6.68061 26.9775
Ow 11.4761 17.1383 25.1915
H 12.3923 17.3369 24.9982
H 11.366 17.3837 26.1102
Ow 22.2306 21.3898 26.8862
H 21.5091 20.9668 27.3517
H 21.8025 21.9668 26.2536
Ow 7.54217 29.8744 21.4582
H 7.25113 29.5242 22.3001
H 6.92989 29.5069 20.8208
Ow 13.1608 1.84933 4.21386
H 14.0869 1.97875 4.0095
H 13.1614 1.42375 5.0712
Ow 25.9719 29.4833 17.312
H 26.6282 28.8681 17.6393
H 26.4793 30.2348 17.0053
Ow 3.48686 29.2932 9.76304
H 3.43464 29.8999 10.5016
H 4.42075 29.1028 9.67442
Ow 23.1702 29.8207 12.4213
H 23.7513 29.3989 13.0542
H 23.4437 30.738 12.4185
Ow 24.7865 29.4894 14.4554
H 24.173 30.1253 14.8234
H 25.6383 29.9238 14.5007
Ow 24.3473 25.3994 6.05114
H 23.7034 25.2147 6.73487
H 24.4803 26.3462 6.09614
Ow 7.13842 16.0452 16.2163
H 6.97541 15.7159 15.3325
H 7.32061 16.9771 16.0954
Ow 28.4556 15.8219 31.6815
H 28.1235 16.4768 0.601334
H 28.4088 16.2494 30.8261
Ow 1.8215 17.8231 21.6932
H 1.03371 18.0876 22.1683
H 2.24324 18.6472 21.45
Ow 30.2556 30.6625 7.2103
H 29.951 30.5096 6.31578
H 30.656 31.5314 7.18236
Ow 11.6158 3.25421 29.5536
H 10.8081 3.74445 29.7071
H 11.8746 3.49084 28.663
Ow 27.0182 16.4486 21.9208
H 27.7183 16.8874 22.4042
H 26.6743 15.7985 22.5334
Ow 0.679869 28.0549 9.30554
H 0.547068 27.1364 9.0707
H 1.63019 28.1694 9.29848
Ow 4.15799 27.3975 17.8476
H 4.10302 26.9392 17.009
H 3.91381 26.7387 18.4977
Ow 7.51398 24.8616 27.3291
H 7.67885 25.6975 26.8929
H 8.37457 24.578 27.6378
Ow 16.5965 26.5447 27.7859
H 16.3659 26.4499 26.8618
H 17.5493 26.4552 27.806
Ow 6.075 25.0386 4.02241
H 6.52117 25.3143 3.22167
H 5.81855 24.1317 3.85425
Ow 1.93797 1.91941 16.6542
H 2.49296 2.6339 16.3414
H 2.04046 1.23104 15.9972
Ow 12.7115 28.9234 11.3115
H 12.6657 29.4363 10.5046
H 11.8008 28.8372 11.5931
Ow 28.111 2.78155 1.93935
H 27.3445 3.24827 2.27221
H 28.8402 3.38484 2.0827
Ow 20.6898 22.3791 10.8164
H 19.9772 21.8381 10.4763
H 20.6077 23.2082 10.3452
Ow 23.8524 23.1326 13.9211
H 24.0424 22.2153 13.7241
H 24.2129 23.6172 13.1786
Ow 13.413 10.5138 12.7902
H 13.0385 9.95211 12.1117
H 12.7466 11.184 12.9419
Ow 24.9662 30.9862 19.555
H 25.0995 30.2999 18.9013
H 24.8443 30.5131 20.3782
Ow 5.00834 24.2805 10.1936
H 5.54159 23.5462 10.4988
H 5.11585 24.2763 9.24249
Ow 8.21304 20.3761 16.2694
H 8.48673 21.1083 16.8218
H 8.16047 19.6307 16.8676
Ow 23.9911 15.7693 9.17203
H 23.1911 16.2829 9.28489
H 24.5986 16.1258 9.82018
Ow 13.0093 0.302148 14.6276
H 12.1751 31.9376 14.162
H 13.2607 1.22282 14.5541
Ow 1.24938 25.3921 8.79382
H 1.81264 25.469 8.02365
H 1.49965 24.5583 9.19167
Ow 18.6396 3.23891 1.39126
H 19.542 3.48053 1.18283
H 18.7164 2.64624 2.13899
Ow 1.9084 6.05444 13.2188
H 1.12768 6.49694 12.8858
H 2.57272 6.20042 12.5453
Ow 1.97349 2.16595 21.9322
H 2.14992 2.23431 20.9939
H 1.77623 3.06194 22.2052
Ow 12.795 0.928883 8.09511
H 12.1488 1.29238 7.48969
H 13.6071 1.38962 7.88433
Ow 23.2135 10.9218 15.0242
H 23.9353 10.3629 14.7363
H 23.194 10.8175 15.9755
Ow 5.00943 5.34907 0.575922
H 5.81004 5.35221 31.7454
H 5.09676 6.10921 1.15109
Ow 18.1234 8.94564 1.27651
H 18.735 8.2356 1.47165
H 18.2865 9.15703 0.35729
Ow 12.222 20.1407 23.4644
H 12.3232 19.3194 22.9831
H 11.7339 20.7093 22.8688
Ow 18.5342 5.41577 8.80241
H 18.0149 6.21574 8.8839
H 19.4185 5.72298 8.60255
Ow 14.8615 23.3982 16.0425
H 15.81 23.5218 16.0797
H 14.6427 22.9701 16.8703
Ow 4.79201 25.2506 0.450901
H 5.64105 25.4422 0.849273
H 4.81109 24.3075 0.287888
Ow 2.86004 14.5306 6.73429
H 2.09436 14.0076 6.97188
H 3.51075 14.3217 7.40451
Ow 20.8689 10.9454 27.7325
H 21.1735 10.0384 27.7053
H 21.3507 11.3387 28.4601
Ow 6.13216 23.0458 25.543
H 7.03432 23.0618 25.2234
H 6.20673 23.2214 26.481
Ow 3.09345 28.3974 2.25219