LAMMPS (23 Jun 2022 - Update 1)
Reading data file ...
  orthogonal box = (0 0 0) to (32.221477 32.221477 32.221477)
  2 by 4 by 4 MPI processor grid
  reading atoms ...
  3324 atoms
  scanning bonds ...
  4 = max bonds/atom
  scanning angles ...
  6 = max angles/atom
  reading bonds ...
  2216 bonds
  reading angles ...
  1216 angles
Finding 1-2 1-3 1-4 neighbors ...
  special bond factors lj:    0        0        0       
  special bond factors coul:  0        0        0       
     4 = max # of 1-2 neighbors
     3 = max # of 1-3 neighbors
     3 = max # of 1-4 neighbors
     4 = max # of special neighbors
  special bonds CPU = 0.001 seconds
  read_data CPU = 0.018 seconds
Setting atom values ...
  1000 settings made for charge
Setting atom values ...
  2000 settings made for charge
Setting atom values ...
  72 settings made for charge
Setting atom values ...
  72 settings made for charge
Setting atom values ...
  36 settings made for charge
Setting atom values ...
  144 settings made for charge
1000 atoms in group wat
72 atoms in group Li
36 atoms in group S
  create bodies CPU = 0.001 seconds
  1108 rigid bodies with 3324 atoms
  1.4900047 = max distance from body owner to body atom
PPPM initialization ...
  extracting TIP4P info from pair style
  using 12-bit tables for long-range coulomb (../kspace.cpp:342)
  G vector (1/distance) = 0.30999641
  grid = 30 30 30
  stencil order = 5
  estimated absolute RMS force accuracy = 0.0037771527
  estimated relative force accuracy = 1.1374783e-05
  using double precision KISS FFT
  3d grid and FFT values/proc = 4950 960
Generated 0 of 15 mixed pair_coeff terms from arithmetic mixing rule
Neighbor list info ...
  update every 1 steps, delay 0 steps, check yes
  max neighbors/atom: 2000, page size: 100000
  master list distance cutoff = 12.3092
  ghost atom cutoff = 12.3092
  binsize = 6.1546, bins = 6 6 6
  1 neighbor lists, perpetual/occasional/extra = 1 0 0
  (1) pair lj/cut/tip4p/long, perpetual
      attributes: half, newton on
      pair build: half/bin/newton
      stencil: half/bin/3d
      bin: standard
Setting up Verlet run ...
  Unit style    : real
  Current step  : 0
  Time step     : 0.001
Per MPI rank memory allocation (min/avg/max) = 15.44 | 15.48 | 15.52 Mbytes
   Step        Density          Temp          Press          TotEng    
         0   1.090712       326.84561      2450098        6011.2143    
      1000   1.0897352      354.84214      97428.345      5967.6909    
      2000   1.0869261      434.31613      93161.187      5840.4222    
      3000   1.082376       557.30228      85922.169      5620.8777    
      4000   1.0762402      710.23078      75897.721      5289.0106    
      5000   1.0687323      882.30171      65138.371      4858.6369    
      6000   1.0600895      1063.2366      55152.014      4349.1561    
      7000   1.05055        1239.4634      44218.758      3758.2011    
      8000   1.0403689      1399.8112      34303.371      3092.837     
      9000   1.0297894      1536.5046      25539.268      2370.6607    
     10000   1.019032       1643.449       17687.341      1604.155     
Loop time of 32.4142 on 32 procs for 10000 steps with 3324 atoms

Performance: 0.027 ns/day, 900.395 hours/ns, 308.506 timesteps/s
99.5% CPU use with 32 MPI tasks x no OpenMP threads

MPI task timing breakdown:
Section |  min time  |  avg time  |  max time  |%varavg| %total
---------------------------------------------------------------
Pair    | 10.181     | 11.918     | 14.114     |  31.7 | 36.77
Bond    | 0.036267   | 0.04663    | 0.056415   |   2.2 |  0.14
Kspace  | 6.2807     | 8.493      | 10.531     |  38.5 | 26.20
Neigh   | 0.0025197  | 0.0025817  | 0.0028576  |   0.1 |  0.01
Comm    | 2.2539     | 2.4832     | 2.5746     |   3.8 |  7.66
Output  | 0.00061736 | 0.00065945 | 0.0014913  |   0.0 |  0.00
Modify  | 8.7052     | 9.0208     | 9.2496     |   5.3 | 27.83
Other   |            | 0.4489     |            |       |  1.38

Nlocal:        103.875 ave         116 max          93 min
Histogram: 2 1 3 8 3 6 4 2 2 1
Nghost:        4080.12 ave        4096 max        4063 min
Histogram: 1 0 3 6 8 2 5 3 3 1
Neighs:          38187 ave       44422 max       34043 min
Histogram: 7 1 4 3 7 2 3 2 1 2

Total # of neighbors = 1221985
Ave neighs/atom = 367.62485
Ave special neighs/atom = 2.0649819
Neighbor list builds = 2
Dangerous builds = 0
PPPM initialization ...
  extracting TIP4P info from pair style
  using 12-bit tables for long-range coulomb (../kspace.cpp:342)
  G vector (1/distance) = 0.31298833
  grid = 32 32 32
  stencil order = 5
  estimated absolute RMS force accuracy = 0.0030277353
  estimated relative force accuracy = 9.1179349e-06
  using double precision KISS FFT
  3d grid and FFT values/proc = 5175 1024
Generated 0 of 15 mixed pair_coeff terms from arithmetic mixing rule
Setting up Verlet run ...
  Unit style    : real
  Current step  : 10000
  Time step     : 0.01
Per MPI rank memory allocation (min/avg/max) = 15.47 | 15.5 | 15.53 Mbytes
   Step        Density          Temp          Press          TotEng    
     10000   1.019032       1643.449       9701.4409      1604.1273    
     11000   0.92888112     1434.8195     -11069.709     -5279.7354    
     12000   0.88150154     1014.751      -11666.133     -8743.936     
     13000   0.86368911     843.85388     -11150.221     -10909.726    
     14000   0.86766866     724.48275     -8832.4271     -12555.656    
     15000   0.8879067      638.24649     -6742.521      -13867.445    
     16000   0.92004771     593.03994     -5864.9756     -14921.507    
     17000   0.96077004     564.50369     -3674.6218     -15855.343    
     18000   1.0046461      539.07975     -585.95646     -16630.894    
     19000   1.0452466      524.20801      2295.6271     -17270.454    
     20000   1.0780904      502.07518      3690.8137     -17837.996    
Loop time of 29.8035 on 32 procs for 10000 steps with 3324 atoms

Performance: 0.290 ns/day, 82.788 hours/ns, 335.531 timesteps/s
99.5% CPU use with 32 MPI tasks x no OpenMP threads

MPI task timing breakdown:
Section |  min time  |  avg time  |  max time  |%varavg| %total
---------------------------------------------------------------
Pair    | 9.1147     | 10.823     | 13.437     |  30.4 | 36.32
Bond    | 0.037726   | 0.045085   | 0.053971   |   1.7 |  0.15
Kspace  | 6.2153     | 8.8585     | 10.603     |  34.1 | 29.72
Neigh   | 0.018028   | 0.018333   | 0.020116   |   0.3 |  0.06
Comm    | 1.895      | 2.0431     | 2.1249     |   3.0 |  6.86
Output  | 0.0005399  | 0.00056632 | 0.00085422 |   0.0 |  0.00
Modify  | 7.6087     | 7.7676     | 7.8067     |   1.6 | 26.06
Other   |            | 0.2472     |            |       |  0.83

Nlocal:        103.875 ave         119 max          92 min
Histogram: 1 4 5 5 6 3 3 2 2 1
Nghost:        4215.62 ave        4255 max        4174 min
Histogram: 2 4 5 2 2 2 3 5 4 3
Neighs:        39787.6 ave       47766 max       34239 min
Histogram: 2 5 6 3 4 4 4 1 2 1

Total # of neighbors = 1273203
Ave neighs/atom = 383.03339
Ave special neighs/atom = 2.0649819
Neighbor list builds = 15
Dangerous builds = 0
PPPM initialization ...
  extracting TIP4P info from pair style
  using 12-bit tables for long-range coulomb (../kspace.cpp:342)
  G vector (1/distance) = 0.30971599
  grid = 30 30 30
  stencil order = 5
  estimated absolute RMS force accuracy = 0.0038210942
  estimated relative force accuracy = 1.1507112e-05
  using double precision KISS FFT
  3d grid and FFT values/proc = 4950 960
Generated 0 of 15 mixed pair_coeff terms from arithmetic mixing rule
Setting up Verlet run ...
  Unit style    : real
  Current step  : 20000
  Time step     : 0.1
Per MPI rank memory allocation (min/avg/max) = 15.44 | 15.48 | 15.52 Mbytes
   Step        Density          Temp          Press          TotEng    
     20000   1.0780904      502.07518      2663.6113     -17837.997    
     21000   1.1814048      356.6741       1419.0696     -21535.938    
     22000   1.179821       327.78728      228.68327     -22536.477    
     23000   1.1784003      308.7144       625.12047     -22852.434    
     24000   1.1623512      324.03095      306.41404     -22853.338    
     25000   1.1607527      320.19592     -477.49324     -23055.355    
     26000   1.1573933      324.87293      533.60583     -23122.643    
     27000   1.1524212      326.67607      729.70162     -23121.704    
     28000   1.1530578      330.15846      474.16035     -23145.684    
     29000   1.1410001      321.21123     -1127.9177     -23240.768    
     30000   1.1461368      323.3331      -1095.385      -23298.627    
Loop time of 32.5741 on 32 procs for 10000 steps with 3324 atoms

Performance: 2.652 ns/day, 9.048 hours/ns, 306.992 timesteps/s
99.5% CPU use with 32 MPI tasks x no OpenMP threads

MPI task timing breakdown:
Section |  min time  |  avg time  |  max time  |%varavg| %total
---------------------------------------------------------------
Pair    | 11.614     | 13.282     | 15.024     |  20.3 | 40.77
Bond    | 0.039202   | 0.044785   | 0.055664   |   1.4 |  0.14
Kspace  | 5.9845     | 7.7517     | 9.39       |  26.6 | 23.80
Neigh   | 0.13764    | 0.14076    | 0.1564     |   0.9 |  0.43
Comm    | 2.1608     | 2.3702     | 2.464      |   3.5 |  7.28
Output  | 0.00046936 | 0.00049488 | 0.0010153  |   0.0 |  0.00
Modify  | 8.2442     | 8.5757     | 8.8116     |   5.7 | 26.33
Other   |            | 0.4086     |            |       |  1.25

Nlocal:        103.875 ave         119 max          83 min
Histogram: 1 0 1 1 5 9 8 4 2 1
Nghost:        4390.25 ave        4434 max        4342 min
Histogram: 3 1 0 5 4 7 5 3 1 3
Neighs:        42338.4 ave       49169 max       34652 min
Histogram: 1 0 2 9 3 6 3 4 2 2

Total # of neighbors = 1354829
Ave neighs/atom = 407.58995
Ave special neighs/atom = 2.0649819
Neighbor list builds = 103
Dangerous builds = 0
PPPM initialization ...
  extracting TIP4P info from pair style
  using 12-bit tables for long-range coulomb (../kspace.cpp:342)
  G vector (1/distance) = 0.31118677
  grid = 30 30 30
  stencil order = 5
  estimated absolute RMS force accuracy = 0.0035957516
  estimated relative force accuracy = 1.0828499e-05
  using double precision KISS FFT
  3d grid and FFT values/proc = 4950 960
Generated 0 of 15 mixed pair_coeff terms from arithmetic mixing rule
Setting up Verlet run ...
  Unit style    : real
  Current step  : 30000
  Time step     : 0.2
Per MPI rank memory allocation (min/avg/max) = 15.45 | 15.48 | 15.52 Mbytes
   Step        Density          Temp          Press          TotEng    
     30000   1.1461368      323.3331      -1963.002      -23298.629    
     31000   1.1500002      327.59883      405.07045     -23221.943    
     32000   1.1379718      327.90956      548.37017     -23287.95     
     33000   1.1409628      317.75608     -923.76115     -23322.54     
     34000   1.1427151      325.4383      -334.1908      -23303.751    
     35000   1.1389541      327.98227     -842.38566     -23261.878    
     36000   1.1406248      320.83517     -961.69578     -23374.473    
     37000   1.1514894      323.69658      103.48338     -23345.206    
     38000   1.1368856      313.24662      38.67516      -23355.992    
     39000   1.1411518      323.18908      590.80953     -23307.095    
     40000   1.1396421      325.74759      58.367645     -23369.845    
Loop time of 34.6135 on 32 procs for 10000 steps with 3324 atoms

Performance: 4.992 ns/day, 4.807 hours/ns, 288.904 timesteps/s
99.5% CPU use with 32 MPI tasks x no OpenMP threads

MPI task timing breakdown:
Section |  min time  |  avg time  |  max time  |%varavg| %total
---------------------------------------------------------------
Pair    | 11.577     | 13.165     | 14.713     |  23.1 | 38.03
Bond    | 0.040196   | 0.047289   | 0.059607   |   2.3 |  0.14
Kspace  | 6.8647     | 8.4324     | 10.013     |  29.1 | 24.36
Neigh   | 0.30521    | 0.31267    | 0.34936    |   1.4 |  0.90
Comm    | 2.4006     | 2.6403     | 2.7421     |   3.9 |  7.63
Output  | 0.00047208 | 0.00051441 | 0.0011634  |   0.0 |  0.00
Modify  | 9.2447     | 9.5595     | 9.7966     |   5.2 | 27.62
Other   |            | 0.4556     |            |       |  1.32

Nlocal:        103.875 ave         119 max          81 min
Histogram: 1 0 1 2 3 11 7 2 1 4
Nghost:           4362 ave        4399 max        4319 min
Histogram: 1 1 4 4 2 4 8 4 3 1
Neighs:        42129.7 ave       50038 max       33684 min
Histogram: 1 0 3 4 8 5 6 1 3 1

Total # of neighbors = 1348150
Ave neighs/atom = 405.58063
Ave special neighs/atom = 2.0649819
Neighbor list builds = 231
Dangerous builds = 0
PPPM initialization ...
  extracting TIP4P info from pair style
  using 12-bit tables for long-range coulomb (../kspace.cpp:342)
  G vector (1/distance) = 0.31105062
  grid = 30 30 30
  stencil order = 5
  estimated absolute RMS force accuracy = 0.0036160867
  estimated relative force accuracy = 1.0889738e-05
  using double precision KISS FFT
  3d grid and FFT values/proc = 4950 960
Generated 0 of 15 mixed pair_coeff terms from arithmetic mixing rule
Setting up Verlet run ...
  Unit style    : real
  Current step  : 40000
  Time step     : 0.5
Per MPI rank memory allocation (min/avg/max) = 15.45 | 15.48 | 15.52 Mbytes
   Step        Density          Temp          Press          TotEng    
     40000   1.1396421      325.74759     -422.552       -23369.845    
     41000   1.1380773      327.73905      672.67812     -23415.342    
     42000   1.1392418      332.46504     -488.61951     -23316.51     
     43000   1.1367345      326.59048     -516.47908     -23298.504    
     44000   1.1404772      329.34516      304.73646     -23379.187    
     45000   1.1432855      311.93094      1014.5211     -23384.4      
     46000   1.1350734      320.6179      -613.95521     -23361.646    
     47000   1.1457064      328.36302     -384.51124     -23426.675    
     48000   1.13848        326.84591      117.21357     -23422.997    
     49000   1.1381998      315.36241     -1086.4838     -23537.371    
     50000   1.1460678      318.36578     -181.92328     -23465.921    
Loop time of 32.6913 on 32 procs for 10000 steps with 3324 atoms

Performance: 13.215 ns/day, 1.816 hours/ns, 305.892 timesteps/s
99.5% CPU use with 32 MPI tasks x no OpenMP threads

MPI task timing breakdown:
Section |  min time  |  avg time  |  max time  |%varavg| %total
---------------------------------------------------------------
Pair    | 12.167     | 13.358     | 14.705     |  17.8 | 40.86
Bond    | 0.038389   | 0.043985   | 0.048546   |   1.4 |  0.13
Kspace  | 5.9761     | 7.3124     | 8.4821     |  24.0 | 22.37
Neigh   | 0.88153    | 0.89694    | 0.97949    |   1.8 |  2.74
Comm    | 2.1446     | 2.3236     | 2.4087     |   3.1 |  7.11
Output  | 0.00039367 | 0.00040624 | 0.00067325 |   0.0 |  0.00
Modify  | 8.0403     | 8.3875     | 8.6168     |   5.8 | 25.66
Other   |            | 0.3686     |            |       |  1.13

Nlocal:        103.875 ave         114 max          92 min
Histogram: 1 1 1 1 7 11 5 2 1 2
Nghost:        4368.97 ave        4386 max        4344 min
Histogram: 1 0 4 1 5 8 3 0 3 7
Neighs:        42350.1 ave       47939 max       35949 min
Histogram: 1 1 0 5 5 8 7 4 0 1

Total # of neighbors = 1355202
Ave neighs/atom = 407.70217
Ave special neighs/atom = 2.0649819
Neighbor list builds = 644
Dangerous builds = 0
  create bodies CPU = 0.000 seconds
  1108 rigid bodies with 3324 atoms
  1.4902333 = max distance from body owner to body atom
PPPM initialization ...
  extracting TIP4P info from pair style
  using 12-bit tables for long-range coulomb (../kspace.cpp:342)
  G vector (1/distance) = 0.31118533
  grid = 30 30 30
  stencil order = 5
  estimated absolute RMS force accuracy = 0.0035959663
  estimated relative force accuracy = 1.0829146e-05
  using double precision KISS FFT
  3d grid and FFT values/proc = 4950 960
Generated 0 of 15 mixed pair_coeff terms from arithmetic mixing rule
Setting up Verlet run ...
  Unit style    : real
  Current step  : 0
  Time step     : 1
Per MPI rank memory allocation (min/avg/max) = 16.47 | 16.51 | 16.54 Mbytes
   Step        Density          Temp          Press          TotEng    
         0   1.1460678      318.36578      343.55971     -23465.921    
      1000   1.1472452      334.85034     -723.3251      -23385.433    
      2000   1.1418536      318.13649      127.63504     -23572.281    
      3000   1.1390414      320.24954     -371.13363     -23520.277    
      4000   1.1413162      323.33625      264.67179     -23408.666    
      5000   1.1483082      329.25813     -196.9309      -23390.501    
      6000   1.1563673      325.62645      790.22607     -23599.267    
      7000   1.1318724      331.27505     -644.99889     -23378.23     
      8000   1.1489777      332.85818      1486.9381     -23420.309    
      9000   1.1268356      319.79766     -867.34407     -23538.778    
     10000   1.1463322      320.45746      1106.9653     -23480.304    
     11000   1.1200664      321.01962     -1047.6508     -23528.902    
     12000   1.1296203      320.59484      275.05427     -23507.424    
     13000   1.1325583      321.3892      -624.83528     -23583.182    
     14000   1.1269892      318.01313     -752.44941     -23508.307    
     15000   1.1392661      321.42791      403.44831     -23426.487    
     16000   1.1388908      323.29511     -91.161626     -23520.337    
     17000   1.1374253      320.53869      178.50815     -23575.104    
     18000   1.1389923      319.92868      384.75929     -23542.862    
     19000   1.1287555      315.19345      165.03312     -23559.051    
     20000   1.1305062      316.40492      462.05628     -23549.232    
     21000   1.1332521      321.96644     -571.06203     -23438.939    
     22000   1.143968       329.82913      93.857314     -23383.307    
     23000   1.1414362      313.85834      278.68371     -23536.394    
     24000   1.1425014      323.89959      92.004128     -23436.137    
     25000   1.138826       321.34624      29.916563     -23455.671    
     26000   1.1401173      323.46292      447.729       -23514.438    
     27000   1.1179117      321.13537     -693.40468     -23460.417    
     28000   1.1470567      331.34675      976.03124     -23467.38     
     29000   1.124395       323.29053     -103.30675     -23476.802    
     30000   1.1401501      322.66351      198.37908     -23515.051    
     31000   1.1375741      331.04038     -210.6372      -23383.81     
     32000   1.1403016      322.0527       28.641343     -23456.894    
     33000   1.1503605      329.61452      1290.4151     -23539.439    
     34000   1.1276103      319.03658     -290.58873     -23475.298    
     35000   1.1341153      322.72998     -823.465       -23460.385    
     36000   1.1227666      332.95634     -693.77584     -23322.204    
     37000   1.1385397      317.18294      282.79307     -23545.088    
     38000   1.1415619      326.8298      -472.53881     -23471.287    
     39000   1.1495532      322.52143      1023.555      -23515.127    
     40000   1.1351988      328.09953     -679.56864     -23460.301    
     41000   1.1278923      315.97852     -302.05525     -23429.223    
     42000   1.14236        316.01591     -58.921728     -23601.848    
     43000   1.1462294      332.08972      384.01818     -23532.443    
     44000   1.1396443      317.8111      -608.62148     -23579.101    
     45000   1.1563194      323.97834      1154.9159     -23473.447    
     46000   1.1349041      316.79218     -1076.7784     -23480.14     
     47000   1.1475003      310.25402      671.588       -23576.237    
     48000   1.1298823      319.43862     -227.70788     -23573.349    
     49000   1.1383019      323.78081      350.14187     -23440.569    
     50000   1.1286604      309.44536     -498.9145      -23573.332    
     51000   1.1442538      326.52038      1163.0218     -23478.92     
     52000   1.13616        323.92941     -522.55697     -23397.28     
     53000   1.1415383      320.80698     -158.42162     -23465.939    
     54000   1.1359181      325.80867     -611.00718     -23468.133    
     55000   1.1402805      329.36768      919.57941     -23407.953    
     56000   1.1357487      321.48085      30.284042     -23506.289    
     57000   1.1484249      330.2931       128.90514     -23462.361    
     58000   1.1336142      319.52484     -735.52544     -23518.19     
     59000   1.1400814      337.74208      123.23494     -23282.033    
     60000   1.1438709      323.41707      267.13517     -23469.089    
     61000   1.1408603      312.11505      410.89347     -23583.447    
     62000   1.1340503      320.77784      210.17908     -23481.583    
     63000   1.1385549      327.92878      7.1643263     -23385.526    
     64000   1.1315381      323.25443     -76.565255     -23365.259    
     65000   1.1400226      317.56439     -272.84974     -23512.183    
     66000   1.1421754      322.30477     -657.44154     -23540.28     
     67000   1.140158       315.31153      94.035321     -23522.913    
     68000   1.1201481      322.89918     -10.936494     -23379.072    
     69000   1.1454477      327.59081      151.14893     -23446.779    
     70000   1.1268092      325.24079     -1015.6169     -23449.217    
     71000   1.1442038      324.62794     -83.512427     -23601.508    
     72000   1.1303137      318.46593     -210.34462     -23472.327    
     73000   1.1549429      320.03332      859.68195     -23524.679    
     74000   1.1450655      320.84738     -197.56502     -23448.743    
     75000   1.1435604      329.00666      882.00151     -23455.059    
     76000   1.1255338      318.11066     -639.63377     -23437.461    
     77000   1.1306118      322.23469     -67.124527     -23419.878    
     78000   1.1387873      325.17895      206.09746     -23377.97     
     79000   1.1407574      327.44718      31.578566     -23485.774    
     80000   1.140299       321.55443     -7.3817205     -23535.89     
     81000   1.1304602      324.70287     -579.48728     -23499.348    
     82000   1.1415765      335.5515      -736.45728     -23392.12     
     83000   1.1403694      327.01748      86.197305     -23422.293    
     84000   1.1470018      328.59688     -341.70854     -23484.431    
     85000   1.1426729      324.33793      116.48647     -23451.821    
     86000   1.1345678      321.85185     -260.36357     -23518.338    
     87000   1.1380961      310.97472      716.47197     -23559.769    
     88000   1.1414634      319.98249      283.19222     -23474.468    
     89000   1.134891       319.89222     -238.62391     -23485.063    
     90000   1.1490468      318.02876      931.06149     -23577.278    
     91000   1.1295961      322.15531     -828.78808     -23476.041    
     92000   1.1466968      313.37991     -136.80117     -23544.585    
     93000   1.1276918      321.10987     -1222.7453     -23450.772    
     94000   1.1443963      316.6198       553.71896     -23552.506    
     95000   1.1232287      322.98725      798.85365     -23286.66     
     96000   1.152702       323.02943      1047.6988     -23521.298    
     97000   1.1396838      331.2327      -451.73211     -23409.758    
     98000   1.1484088      319.74723     -264.24837     -23490.732    
     99000   1.1345239      330.24863      219.29801     -23391.455    
    100000   1.1303693      332.99122     -1333.3264     -23426.68     
    101000   1.1504807      320.72742      452.90924     -23590.324    
    102000   1.1346367      329.13835     -368.48053     -23469.181    
    103000   1.1459444      318.59272      812.86822     -23465.844    
    104000   1.1359301      320.87634     -423.11209     -23493.895    
    105000   1.1469786      317.64298      408.36915     -23548.389    
    106000   1.1471401      323.03939      325.18247     -23480.513    
    107000   1.1428378      324.64751      584.77474     -23443.105    
    108000   1.1399524      320.67913      483.65951     -23444.258    
    109000   1.1347235      332.72015      53.197553     -23410.334    
    110000   1.1438737      311.05531     -368.94211     -23614.4      
    111000   1.13926        319.98033     -61.799624     -23569.693    
    112000   1.1387377      330.66341     -383.37388     -23421.459    
    113000   1.1326973      329.86608      268.02072     -23444.278    
    114000   1.1324723      331.57944     -402.4527      -23423.314    
    115000   1.1400709      327.6322       576.69875     -23448.167    
    116000   1.1283813      324.13577     -1376.2361     -23508.865    
    117000   1.1497324      317.7663      -228.71382     -23602.219    
    118000   1.1371666      322.88796     -746.29814     -23413.449    
    119000   1.1392413      326.73844      731.03141     -23423.627    
    120000   1.1344042      317.98564      7.5558324     -23503.019    
    121000   1.1345624      329.14384     -423.90827     -23484.076    
    122000   1.1391155      328.21908     -390.66589     -23560.623    
    123000   1.1426307      328.50398     -886.29953     -23395.077    
    124000   1.1393405      318.94277     -730.83004     -23453.123    
    125000   1.129401       316.2136      -458.28105     -23472.1      
    126000   1.1396769      328.51792      502.17508     -23464.517    
    127000   1.1403941      339.63673      393.06113     -23306.764    
    128000   1.136728       323.73052     -110.7067      -23445.876    
    129000   1.1321116      323.0067       293.6819      -23496.131    
    130000   1.1458772      318.09497     -508.31739     -23595.882    
    131000   1.1543032      331.24974      903.94974     -23448.759    
    132000   1.1402115      330.2483       301.82299     -23436.405    
    133000   1.1328916      324.49016     -961.24219     -23381.658    
    134000   1.1405188      320.17485      127.04305     -23478.596    
    135000   1.1499006      325.19539     -40.10427      -23448.242    
    136000   1.1430233      313.54905     -144.11042     -23552.676    
    137000   1.1468392      323.38752      337.10426     -23508.906    
    138000   1.1375974      318.77103     -151.67372     -23446.625    
    139000   1.1486322      320.06055      1165.5679     -23574.56     
    140000   1.1431006      310.06362     -813.74588     -23533.592    
    141000   1.1556614      322.33377     -66.28575      -23506.263    
    142000   1.1365475      315.27391     -611.81429     -23461.161    
    143000   1.1363478      325.4703      -350.95641     -23405.844    
    144000   1.1377606      337.40377     -195.18048     -23403.915    
    145000   1.1337772      319.05457      547.87512     -23562.315    
    146000   1.141401       325.05384      261.71809     -23467.871    
    147000   1.1460674      330.77623      193.13945     -23496.08     
    148000   1.142457       310.81038     -430.44773     -23518.258    
    149000   1.1406903      320.66849      588.06391     -23510.689    
    150000   1.1280917      322.64413      45.936512     -23545.923    
    151000   1.1476847      316.93142      384.82973     -23575.23     
    152000   1.1406813      322.8519      -867.66212     -23543.784    
    153000   1.1366109      327.61985     -278.77496     -23422.387    
    154000   1.1431496      330.3199       882.23562     -23436.835    
    155000   1.1342798      316.18249     -281.25904     -23473.818    
    156000   1.1444295      327.08056      931.20324     -23430.02     
    157000   1.1392274      321.78418      43.911038     -23543.908    
    158000   1.1368057      324.16275     -256.20478     -23492.017    
    159000   1.1460633      315.62279      319.66346     -23559.253    
    160000   1.1435208      320.71891     -640.44944     -23463.656    
    161000   1.1449383      334.53262     -106.98135     -23495.568    
    162000   1.1543947      328.46762      955.99033     -23413.876    
    163000   1.1429119      317.43442     -80.514291     -23535.828    
    164000   1.1370881      320.44776     -194.35213     -23528.458    
    165000   1.1439329      318.10261      273.49557     -23587.344    
    166000   1.1373468      317.96091      609.01934     -23482.465    
    167000   1.1403136      326.2463      -340.64496     -23527.31     
    168000   1.1375065      326.90101      525.5108      -23493.21     
    169000   1.1417451      320.98518      208.37704     -23617.049    
    170000   1.1359057      326.81173     -327.32277     -23589.256    
    171000   1.143101       319.90422      59.991627     -23453.506    
    172000   1.1341853      314.63775      85.478346     -23620.937    
    173000   1.1416232      327.24239      520.18807     -23447.706    
    174000   1.1343907      323.54558      519.7354      -23451.394    
    175000   1.1346561      326.34383      573.79447     -23493.734    
    176000   1.1236044      323.40338     -534.85126     -23360.136    
    177000   1.1519368      328.56139     -201.48086     -23427.478    
    178000   1.1491034      328.61061      449.64066     -23443.317    
    179000   1.1371654      322.20566      12.294202     -23515.81     
    180000   1.1357672      332.26138     -461.44152     -23410.064    
    181000   1.1497909      318.38143      54.712896     -23453.675    
    182000   1.1479817      319.85957     -266.90025     -23506.067    
    183000   1.1504568      318.82861      598.10441     -23524.773    
    184000   1.1360374      325.68929      684.71451     -23440.807    
    185000   1.1329887      320.61114      148.3228      -23508.655    
    186000   1.1408976      319.67827      565.72286     -23508.528    
    187000   1.1379059      315.67053      804.96175     -23543.772    
    188000   1.1240826      320.35463     -1082.8513     -23470.925    
    189000   1.1473315      334.6207       686.07326     -23476.376    
    190000   1.1394248      327.38543     -117.25904     -23456.685    
    191000   1.1433624      319.1725       1237.8311     -23515.647    
    192000   1.1376677      323.40738     -428.06743     -23515.777    
    193000   1.1433733      332.65779      381.35616     -23393.08     
    194000   1.1373766      322.32465     -192.71541     -23389.74     
    195000   1.1439646      313.37572     -228.18989     -23525.016    
    196000   1.1356289      316.96792     -143.02532     -23513.366    
    197000   1.1316422      317.52824     -897.28863     -23429.351    
    198000   1.1415126      334.64455      557.26844     -23416.443    
    199000   1.1313972      324.49571     -519.81226     -23395.211    
    200000   1.1422371      329.18781      226.68744     -23410.408    
    201000   1.1384086      319.79531     -646.00702     -23418.365    
    202000   1.1413805      315.59237     -832.64237     -23552.118    
    203000   1.151176       315.27765      1014.4793     -23477.902    
    204000   1.1285847      325.51418     -544.17268     -23365.87     
    205000   1.1353069      323.01441      110.53732     -23395.193    
    206000   1.144474       322.66862     -384.83487     -23510.374    
    207000   1.1293167      326.84853     -1089.423      -23483.627    
    208000   1.1523053      321.11341     -126.02769     -23515.277    
    209000   1.1449728      323.34644     -41.157352     -23542.789    
    210000   1.1427829      325.71991      249.50578     -23519.871    
    211000   1.1485483      319.7073       1085.8771     -23501.35     
    212000   1.1227806      322.6653      -913.18067     -23460.596    
    213000   1.146629       322.35779      422.83027     -23450.051    
    214000   1.1482409      321.75362      947.05146     -23514.571    
    215000   1.139191       319.94586      838.27974     -23489.377    
    216000   1.1507214      313.20261      912.47219     -23584.247    
    217000   1.1303126      318.70999      6.5624274     -23495.135    
    218000   1.1377005      332.83305      334.78954     -23357.237    
    219000   1.1483302      322.9989       110.88419     -23590.34     
    220000   1.1244865      321.21555     -48.874015     -23444.408    
    221000   1.1436997      325.99309      458.38511     -23504.391    
    222000   1.1267594      314.05286     -563.14896     -23528.406    
    223000   1.1402787      305.4373      -128.16224     -23506.894    
    224000   1.1440193      324.33944     -396.0514      -23502.509    
    225000   1.1378487      330.33206      19.764671     -23499.979    
    226000   1.131693       330.49753     -19.924874     -23424.982    
    227000   1.1434972      321.9974       577.16104     -23557.835    
    228000   1.1414183      327.42361      425.41198     -23374.629    
    229000   1.1402675      327.67976     -205.8688      -23432.665    
    230000   1.1326305      324.72869     -891.40352     -23516.579    
    231000   1.1393276      324.20786     -80.4247       -23501.943    
    232000   1.1485682      334.19016      307.99417     -23533.407    
    233000   1.1537961      320.7262       780.75687     -23480.925    
    234000   1.1330592      323.17654     -221.96622     -23464.427    
    235000   1.1513193      329.55284      125.68737     -23483.024    
    236000   1.149401       325.55502     -162.77302     -23503.885    
    237000   1.1528286      320.20284      253.67304     -23532.579    
    238000   1.1420208      324.72613     -839.09903     -23497.926    
    239000   1.1483184      314.45894     -479.05075     -23470.663    
    240000   1.139808       312.82671      405.05918     -23526.827    
    241000   1.133457       328.80457     -416.50986     -23418.268    
    242000   1.1415138      327.88145     -115.6145      -23360.518    
    243000   1.1427712      321.51774     -266.2251      -23352.66     
    244000   1.1434319      326.05242     -94.469566     -23464.115    
    245000   1.1452003      325.3282       182.26341     -23458.504    
    246000   1.1366227      318.87571     -47.213781     -23443.694    
    247000   1.1421143      312.93445     -668.93201     -23548.711    
    248000   1.1438699      327.35813      355.62029     -23409.352    
    249000   1.1418102      326.8128       247.90747     -23525.233    
    250000   1.1348439      327.47044     -172.74365     -23440.874    
    251000   1.1423771      321.60153     -516.67732     -23529.899    
    252000   1.1259315      330.76774     -1294.1867     -23539.081    
    253000   1.1358141      324.61496      173.66137     -23446.048    
    254000   1.144877       322.26551      319.55878     -23531.158    
    255000   1.1352403      324.77651      51.137311     -23513.731    
    256000   1.1459974      326.10597      962.30417     -23433.249    
    257000   1.1360322      335.39855      333.64886     -23375.696    
    258000   1.1476762      328.58546      611.0752      -23449.757    
    259000   1.1450955      316.5701      -282.15063     -23500.342    
    260000   1.1427492      319.27649     -674.94036     -23523.637    
    261000   1.1343682      332.09119      254.91722     -23375.703    
    262000   1.1395079      317.25534     -234.82814     -23530.8      
    263000   1.1504654      332.03022      6.2905229     -23421.686    
    264000   1.1204802      314.8747      -851.41809     -23357.64     
    265000   1.14406        313.57076      1043.0056     -23662.326    
    266000   1.1357226      321.28559      132.43582     -23559.493    
    267000   1.1399108      321.44337     -63.571237     -23422.224    
    268000   1.1348779      328.95589     -620.99867     -23338.985    
    269000   1.1383716      330.72667      420.48137     -23412.574    
    270000   1.1289588      315.42912     -423.10832     -23504.86     
    271000   1.1501597      313.76177      261.64661     -23599.738    
    272000   1.1410463      327.45175     -94.575524     -23434.101    
    273000   1.1436131      323.32988      1665.4514     -23468.434    
    274000   1.1393962      316.6734       274.52105     -23587.854    
    275000   1.1359464      320.68094      64.750282     -23354.492    
    276000   1.1454009      315.90899     -486.20757     -23616.322    
    277000   1.1349987      315.91215     -790.50812     -23504.117    
    278000   1.1301754      330.05427     -33.694015     -23366.837    
    279000   1.1366462      327.55641      1171.7203     -23482.132    
    280000   1.1336739      324.88027     -277.95296     -23459.961    
    281000   1.1348396      318.61086      215.10899     -23487.956    
    282000   1.1361189      325.1557       317.28851     -23454.561    
    283000   1.1313478      327.16465      194.3524      -23398.955    
    284000   1.1425013      322.56311      351.52146     -23469.369    
    285000   1.1380145      328.59656     -313.14028     -23492.569    
    286000   1.1328059      320.55416      49.626919     -23455.549    
    287000   1.1292767      316.22508      255.57414     -23456.684    
    288000   1.1411911      319.16091      450.82236     -23554.419    
    289000   1.1482304      326.37739      548.95402     -23562.051    
    290000   1.1283333      328.94731     -566.85191     -23375.038    
    291000   1.1486741      328.00382      525.49583     -23452.172    
    292000   1.1397656      323.40522      104.50621     -23537.719    
    293000   1.1387068      321.31736     -204.08549     -23412.002    
    294000   1.1377687      317.63451      552.95208     -23457.519    
    295000   1.13224        330.38665      9.2538398     -23395.683    
    296000   1.1410529      337.59351      985.53754     -23400.329    
    297000   1.1315253      323.38548     -584.96952     -23588.414    
    298000   1.1353658      311.34511     -195.56241     -23595.11     
    299000   1.1405359      325.0639       408.85358     -23433.525    
    300000   1.1457852      319.88615      80.051204     -23579.666    
    301000   1.1399593      325.65135     -198.67671     -23469.27     
    302000   1.1490524      323.11709      782.67917     -23576.974    
    303000   1.1347047      331.16816     -112.19376     -23512.594    
    304000   1.1401139      317.86972     -39.228149     -23529.034    
    305000   1.1480609      313.5809      -306.66528     -23550.541    
    306000   1.1376877      318.44243     -296.30541     -23535.24     
    307000   1.1396952      322.67407     -228.44041     -23483.587    
    308000   1.1334329      315.12248     -873.32695     -23509.541    
    309000   1.1410326      322.56846     -26.392836     -23532.498    
    310000   1.1464095      327.29424      422.97832     -23521.362    
    311000   1.1402988      316.04834     -52.392469     -23560.687    
    312000   1.1405268      324.41399      902.01777     -23493.181    
    313000   1.1401104      329.12659     -594.19691     -23537.536    
    314000   1.144362       323.86885      278.63437     -23445.518    
    315000   1.151154       335.03484      253.63783     -23450.7      
    316000   1.1455213      321.65321     -626.56565     -23529.649    
    317000   1.137068       327.59024     -458.05064     -23516.475    
    318000   1.145306       332.94296      224.57725     -23454.34     
    319000   1.1323441      330.27237     -531.50471     -23428.453    
    320000   1.1468396      322.43553     -137.55839     -23451.754    
    321000   1.1272245      314.81463      563.43026     -23504.473    
    322000   1.1208052      314.2276      -211.1654      -23504.882    
    323000   1.1408935      324.91629      383.1186      -23480.044    
    324000   1.1409781      325.14174      474.16123     -23516.763    
    325000   1.14581        315.08799      317.32229     -23562.675    
    326000   1.1403334      316.11623     -501.25372     -23546.886    
    327000   1.14897        322.01474      54.094041     -23513.903    
    328000   1.1432161      335.53214     -943.27391     -23450.391    
    329000   1.1312973      329.22382      19.497573     -23405.131    
    330000   1.132795       326.98415      65.324915     -23411.725    
    331000   1.1321448      332.67456     -426.07095     -23485.164    
    332000   1.1367536      313.06831      452.99949     -23483.388    
    333000   1.1387468      320.99485     -560.46064     -23454.97     
    334000   1.1402059      312.3567       358.31452     -23542.022    
    335000   1.1320861      326.06304      283.02811     -23426.35     
    336000   1.1258601      313.1736      -1017.1468     -23561.034    
    337000   1.1330148      323.97741     -186.55993     -23399.863    
    338000   1.1316641      321.60144      397.51513     -23360.938    
    339000   1.1337358      308.35522      67.030046     -23539.03     
    340000   1.1392694      313.38203     -142.11775     -23522.005    
    341000   1.1414805      312.5952       276.49587     -23483.657    
    342000   1.136234       327.57128     -320.22994     -23331.516    
    343000   1.1464537      321.54682      147.44535     -23435.155    
    344000   1.1222451      322.57546     -417.825       -23455.209    
    345000   1.1457816      325.95764      313.45475     -23455.922    
    346000   1.1326283      322.39357      332.68707     -23460.815    
    347000   1.134795       323.95451      575.03002     -23582.416    
    348000   1.1403892      322.20947     -308.58916     -23512.418    
    349000   1.1335922      323.51218     -621.58037     -23471.627    
    350000   1.1519043      327.25551      34.023026     -23417.653    
    351000   1.1383153      313.61669     -63.221289     -23464.953    
    352000   1.1405575      310.08143     -32.330385     -23578.256    
    353000   1.1383308      327.37403      293.86243     -23449.208    
    354000   1.1444135      318.31996      594.47224     -23550.05     
    355000   1.1402516      319.41432     -213.63269     -23498.747    
    356000   1.1303644      323.35051     -298.90887     -23452.848    
    357000   1.132874       318.81584     -71.990912     -23582.454    
    358000   1.1296084      325.52037      143.57891     -23375.824    
    359000   1.1412511      316.82972      571.46662     -23513.013    
    360000   1.1372426      311.15935      429.88828     -23525.864    
    361000   1.1316973      325.48995      319.95913     -23399.885    
    362000   1.1334197      322.97889      59.423955     -23522.046    
    363000   1.1381948      324.91752     -318.31865     -23465.764    
    364000   1.1303148      333.56841     -569.20859     -23422.092    
    365000   1.1467895      308.81577      722.36372     -23575.026    
    366000   1.1357274      322.53032     -388.75361     -23436.28     
    367000   1.1418173      323.31926      1223.2035     -23483.479    
    368000   1.1449185      330.3768      -549.02337     -23436.721    
    369000   1.1522343      322.10556     -239.3834      -23519.688    
    370000   1.1401066      319.95418     -1123.9925     -23589.349    
    371000   1.1554664      332.59006      375.57444     -23396.971    
    372000   1.1334056      327.20983     -296.60791     -23439.043    
    373000   1.1539008      321.00003      1179.7417     -23517.684    
    374000   1.1332632      327.03556     -1721.6694     -23444.918    
    375000   1.1470246      319.11159      342.22596     -23619.215    
    376000   1.1446825      327.69856     -348.4121      -23533.164    
    377000   1.1426712      326.50521      459.14219     -23451.524    
    378000   1.1384345      330.92897      85.15379      -23366.719    
    379000   1.1427173      317.63591      183.71083     -23498.24     
    380000   1.1455603      311.34262     -232.99812     -23550.778    
    381000   1.1321814      330.93215      17.273209     -23366.971    
    382000   1.1332153      324.00182      296.54591     -23409.773    
    383000   1.1336213      320.03703      122.78716     -23512.882    
    384000   1.1418477      321.72282      35.181312     -23592.42     
    385000   1.1360628      330.59431      165.72075     -23384.251    
    386000   1.1565847      318.66125      570.6524      -23599.944    
    387000   1.1462962      326.71273     -86.136663     -23504.763    
    388000   1.1533         320.91401      294.29135     -23542.77     
    389000   1.1276833      316.5777      -736.24295     -23472.012    
    390000   1.150882       312.12917      547.50576     -23598.266    
    391000   1.1270619      319.77722     -1512.5999     -23469.209    
    392000   1.1422319      326.61        -241.55409     -23479.73     
    393000   1.1460885      316.29149      670.05179     -23570.223    
    394000   1.1419774      313.89101      646.81607     -23564.491    
    395000   1.1414124      316.34886      751.2665      -23574.46     
    396000   1.1382035      327.97179     -318.08203     -23491.596    
    397000   1.142961       326.36459      614.14676     -23441.24     
    398000   1.1409948      330.86387      654.63842     -23440.98     
    399000   1.1280966      317.64754     -546.85431     -23591.49     
    400000   1.1396139      326.03631      378.43085     -23485.326    
    401000   1.1333137      325.22018      177.719       -23492.4      
    402000   1.1495509      325.79496      135.82483     -23507.662    
    403000   1.1359059      310.94604     -234.30433     -23649.077    
    404000   1.1436321      315.04573      912.1941      -23523.721    
    405000   1.1389862      318.78037     -283.00086     -23480.211    
    406000   1.1545826      322.26386      670.5507      -23452.549    
    407000   1.1427075      317.79919     -434.65357     -23480.562    
    408000   1.1363017      315.82318     -85.733786     -23406.573    
    409000   1.1477865      315.20205      755.94118     -23447.802    
    410000   1.136402       309.97455     -589.73069     -23609.686    
    411000   1.1504877      321.93539      962.70821     -23549.381    
    412000   1.1355453      322.21065     -797.40772     -23514.146    
    413000   1.1470406      324.43035      920.40772     -23498.75     
    414000   1.1383426      319.47329      369.61902     -23609.326    
    415000   1.1345491      325.74624     -176.95825     -23526.3      
    416000   1.1447337      324.78268      942.77453     -23502.024    
    417000   1.1232751      327.67678     -271.56446     -23428.316    
    418000   1.1401735      325.22336      81.83707      -23460.646    
    419000   1.1466987      309.56205      80.410827     -23565.822    
    420000   1.1374892      324.33503      108.66718     -23405.905    
    421000   1.1527113      329.44095      100.14123     -23450.984    
    422000   1.1359346      322.06215     -672.2356      -23482.81     
    423000   1.1513891      321.5784       365.1587      -23553.945    
    424000   1.1415336      321.50742     -29.756138     -23401.852    
    425000   1.1297201      330.96617     -269.94479     -23437.433    
    426000   1.1433412      320.69327      364.39633     -23498.87     
    427000   1.1351083      317.0147      -358.15167     -23540.772    
    428000   1.1472145      313.54845     -457.9586      -23579.425    
    429000   1.1324235      327.53135     -475.03348     -23442.07     
    430000   1.1364399      324.39009      564.22366     -23580.022    
    431000   1.1531521      320.35066      674.35575     -23544.099    
    432000   1.1288553      317.79778     -1102.3596     -23401.398    
    433000   1.1484244      329.20039      877.24094     -23446.331    
    434000   1.1338211      325.53387     -511.22058     -23465.142    
    435000   1.145988       327.57666      377.83738     -23545.304    
    436000   1.1337295      322.58161     -644.78369     -23462.499    
    437000   1.1477611      322.20763     -479.07912     -23420.705    
    438000   1.1424599      318.72509     -913.54582     -23536.904    
    439000   1.1543682      328.0625       938.4307      -23454.707    
    440000   1.1405318      327.84601      153.26204     -23520.859    
    441000   1.1532527      319.10447      602.62789     -23523.326    
    442000   1.1485813      317.72064      245.01067     -23620.11     
    443000   1.1481728      316.72547      62.775931     -23601.223    
    444000   1.1375904      316.17165     -490.99271     -23499.22     
    445000   1.1514998      327.4159       327.94608     -23436.646    
    446000   1.1547091      329.57534      239.67378     -23446.55     
    447000   1.1341552      317.26751     -388.2859      -23401.001    
    448000   1.1417766      319.10574     -54.448055     -23523.298    
    449000   1.1328312      316.20324     -273.53528     -23539.943    
    450000   1.1367912      331.10569     -41.383817     -23407.114    
    451000   1.1471897      329.35962      662.41021     -23516.287    
    452000   1.1521137      320.80765     -102.52122     -23516.11     
    453000   1.1369195      321.88903     -217.7667      -23426.583    
    454000   1.1477928      319.64825      140.6537      -23579.172    
    455000   1.1423895      309.87921      449.4856      -23600.278    
    456000   1.1443754      316.91648     -369.38933     -23469.532    
    457000   1.1544942      322.06302     -272.45448     -23502.691    
    458000   1.1354954      316.95487     -568.39025     -23602.049    
    459000   1.12972        327.56311     -1024.1202     -23445.233    
    460000   1.1489074      324.36604      275.43513     -23503.367    
    461000   1.1353967      317.05449     -358.31949     -23472.463    
    462000   1.1490401      318.4562       207.81277     -23651.267    
    463000   1.1455549      322.55142     -63.609809     -23528.268    
    464000   1.1372983      321.83542     -446.50883     -23445.474    
    465000   1.143078       328.60144      700.1647      -23533.175    
    466000   1.130239       322.83679      415.98778     -23546.942    
    467000   1.1382314      319.55682     -11.032529     -23477.248    
    468000   1.1355885      327.1305       645.4233      -23468.405    
    469000   1.1438334      319.33721      1223.6234     -23489.601    
    470000   1.1294808      322.41077     -792.02033     -23463.022    
    471000   1.1487365      323.16113      1052.5809     -23516.621    
    472000   1.1372485      329.71924     -365.40823     -23424.577    
    473000   1.1529406      326.17611     -164.24908     -23552.828    
    474000   1.1289128      319.28648      146.30413     -23589.024    
    475000   1.1469993      326.97244      426.69221     -23422.857    
    476000   1.1289448      329.41895     -779.64084     -23352.649    
    477000   1.1494567      327.91662      716.20295     -23429.427    
    478000   1.1417223      324.8195       509.51415     -23458.196    
    479000   1.123458       319.67644     -475.42999     -23519.493    
    480000   1.1372327      323.77592      212.2367      -23474.505    
    481000   1.1356201      323.86945      524.68698     -23448.468    
    482000   1.1347597      325.55269     -54.504282     -23543.391    
    483000   1.1314385      327.42644      869.46475     -23370.42     
    484000   1.1366544      317.03156     -45.374951     -23523.49     
    485000   1.1359805      328.15997      411.36631     -23361.925    
    486000   1.136853       327.82503      368.99494     -23459.074    
    487000   1.1336432      313.85755      4.8728809     -23446.331    
    488000   1.1388244      328.18993      558.31214     -23409.738    
    489000   1.1403795      314.68858      627.53048     -23425.815    
    490000   1.1478737      316.81715     -2.3251079     -23543.734    
    491000   1.1349328      320.99531      123.75912     -23489.139    
    492000   1.1335472      319.6919      -426.96506     -23456.669    
    493000   1.1287216      321.94318      87.341062     -23469.093    
    494000   1.1370342      324.22432     -281.50997     -23454.028    
    495000   1.139599       316.74325     -8.452502      -23557.376    
    496000   1.1377964      319.9844       79.710522     -23417.094    
    497000   1.1418374      322.34994      248.97664     -23448.664    
    498000   1.1432482      316.07096     -74.684051     -23417.237    
    499000   1.1431361      327.75658      304.51691     -23499.459    
    500000   1.141644       321.93544     -49.833771     -23479.274    
    501000   1.1391513      329.93551     -160.99699     -23428.067    
    502000   1.1322699      326.46244     -56.668165     -23385.709    
    503000   1.1458578      330.29745      878.90092     -23493.418    
    504000   1.1250781      312.21147     -443.31199     -23558.86     
    505000   1.1516936      319.30483      1068.6032     -23457.412    
    506000   1.1254578      329.3919      -1004.3739     -23423.024    
    507000   1.1478643      317.06401      825.0164      -23523.4      
    508000   1.1254952      320.97965     -695.24676     -23401.874    
    509000   1.1388511      321.67083      389.40033     -23519.803    
    510000   1.1461492      313.1179       911.12235     -23601.91     
    511000   1.1359286      320.20154     -190.8613      -23484.432    
    512000   1.1350116      316.90244     -1104.887      -23459.415    
    513000   1.1387742      316.56078     -131.26141     -23548.821    
    514000   1.143214       320.12463      750.39295     -23495.311    
    515000   1.1256636      316.78918     -1139.9089     -23491.468    
    516000   1.1336083      325.30282      130.62709     -23474.418    
    517000   1.1407855      323.23941      142.75219     -23458.415    
    518000   1.1365703      321.05556     -322.66823     -23551.375    
    519000   1.1433522      330.56777      642.02635     -23359.954    
    520000   1.1351398      322.76259     -472.25016     -23443.829    
    521000   1.1423717      323.89047      623.70162     -23480.38     
    522000   1.1368019      321.00676     -89.982459     -23431.647    
    523000   1.1334892      323.08958     -764.43188     -23357.573    
    524000   1.1448939      320.49806     -184.09759     -23525.069    
    525000   1.1347081      324.19726     -1077.6782     -23457.019    
    526000   1.1571055      323.60667      631.34987     -23514.911    
    527000   1.1380423      325.43381     -208.8104      -23430.304    
    528000   1.1258827      322.77617     -216.45211     -23438.883    
    529000   1.1361261      319.71423     -264.5304      -23439.385    
    530000   1.1333388      320.969        150.74787     -23399.517    
    531000   1.140653       317.72171      849.45789     -23452.021    
    532000   1.1295135      320.02343     -932.75689     -23497.355    
    533000   1.1515948      316.97591      123.44813     -23553.239    
    534000   1.1224425      323.27928     -613.60113     -23474.397    
    535000   1.1521448      314.83718      556.32961     -23635.663    
    536000   1.1323085      321.22372     -226.36949     -23476.914    
    537000   1.1444225      323.43605      368.29635     -23467.948    
    538000   1.1390884      319.14644      592.40716     -23400.145    
    539000   1.1312275      321.22733      370.7917      -23413.468    
    540000   1.1473566      320.89409      549.264       -23478.486    
    541000   1.1456689      331.80341      312.02922     -23467.198    
    542000   1.1418913      325.84002      284.72169     -23547.057    
    543000   1.1423955      318.30646     -230.16806     -23557.416    
    544000   1.150156       327.18321      829.43425     -23469.568    
    545000   1.1418203      323.82023      50.860366     -23444.843    
    546000   1.1491757      325.12568      381.80464     -23425.706    
    547000   1.1461843      323.37541      160.75898     -23482.782    
    548000   1.1531182      314.36921      1053.797      -23647.433    
    549000   1.1371115      321.16257     -197.8561      -23601.92     
    550000   1.130052       326.10438     -314.21758     -23417.153    
    551000   1.147624       309.81876      141.69958     -23558.048    
    552000   1.1417443      331.38366      389.33182     -23471.919    
    553000   1.1506904      322.17967      643.57472     -23414.755    
    554000   1.1327826      327.44818     -1458.3549     -23433.788    
    555000   1.1426785      317.74428      520.79465     -23596.509    
    556000   1.1370422      328.95491     -162.20851     -23465.429    
    557000   1.1479457      318.83968      1117.0696     -23517.982    
    558000   1.1334882      317.22364      306.63594     -23431.23     
    559000   1.1387713      331.04917     -646.62652     -23515.897    
    560000   1.1476173      318.44921      234.35207     -23451.911    
    561000   1.1484833      323.34782      456.22049     -23527.121    
    562000   1.1360889      328.29768      686.20539     -23464.623    
    563000   1.1435544      322.96688     -402.77354     -23577.825    
    564000   1.1380217      318.03789     -235.64451     -23537.41     
    565000   1.131316       329.74261      204.11514     -23373.041    
    566000   1.1391571      321.32473     -182.21886     -23509.442    
    567000   1.1387492      316.40049      616.5287      -23474.683    
    568000   1.1398069      326.75702      345.89542     -23427.059    
    569000   1.1357723      320.06601     -1171.7017     -23509.527    
    570000   1.1524961      323.51434      1294.6826     -23514.926    
    571000   1.1284082      325.01148     -431.14205     -23428.712    
    572000   1.1445803      335.69028      106.02316     -23419.296    
    573000   1.1357167      332.85012     -561.0015      -23413.07     
    574000   1.1492777      330.08916      505.63306     -23359.421    
    575000   1.1387054      322.69706     -24.557449     -23441.105    
    576000   1.1473619      320.94869      872.99124     -23563.418    
    577000   1.13989        326.87904     -151.63232     -23443.717    
    578000   1.1473918      311.58312     -790.52874     -23608.248    
    579000   1.1400114      315.92465      22.560804     -23499.367    
    580000   1.1402697      320.84474      358.77025     -23390.781    
    581000   1.140366       316.96009     -90.100302     -23527.562    
    582000   1.1351948      322.42554     -255.00728     -23428.818    
    583000   1.1397154      324.13348      608.98475     -23425.022    
    584000   1.1507762      324.44265      1248.5922     -23429.302    
    585000   1.1375331      335.2646       229.09569     -23466.391    
    586000   1.1304381      324.38682     -742.98985     -23515.263    
    587000   1.1436979      326.53671      272.44439     -23402.978    
    588000   1.1482041      322.0505       551.42936     -23551.777    
    589000   1.1353223      324.46523     -1009.4665     -23385.226    
    590000   1.1432512      323.44104     -164.0905      -23592.611    
    591000   1.1307677      321.05389     -568.51222     -23509.435    
    592000   1.1329313      323.26363     -1297.3938     -23410.481    
    593000   1.137856       327.73548      89.458463     -23421.042    
    594000   1.1203846      317.10399      2.3663245     -23500.354    
    595000   1.1342844      325.61792      361.47152     -23463.098    
    596000   1.1469547      324.10512     -337.81128     -23512.097    
    597000   1.1182718      328.36344     -449.72855     -23408.233    
    598000   1.1426211      314.19308      653.42969     -23636.849    
    599000   1.1349434      316.99518     -103.26059     -23557.329    
    600000   1.1434447      326.86006     -18.498614     -23468.543    
    601000   1.1383627      311.30154      224.19992     -23623.344    
    602000   1.1501354      320.9572       474.61107     -23488.134    
    603000   1.1372244      327.40088      450.1412      -23282.077    
    604000   1.1345412      327.1891      -1093.0979     -23494.103    
    605000   1.1409439      321.18472     -57.295668     -23523.849    
    606000   1.1338103      329.24067     -489.96751     -23474.393    
    607000   1.1379467      331.20548     -458.46705     -23436.083    
    608000   1.1396358      329.99743      106.32954     -23442.302    
    609000   1.1415628      324.35864     -209.65206     -23457.026    
    610000   1.1375656      320.67628     -591.73039     -23453.397    
    611000   1.146242       315.25249      770.97479     -23487.491    
    612000   1.1454821      319.90917      271.8909      -23537.125    
    613000   1.1378313      315.74508     -136.45406     -23464.888    
    614000   1.1397293      324.71071      530.03497     -23375.872    
    615000   1.142606       324.81068      369.78944     -23381.423    
    616000   1.1458457      312.01239      697.07471     -23491.605    
    617000   1.1405727      320.7727      -611.27818     -23435.618    
    618000   1.1375187      322.47069     -719.24052     -23488.625    
    619000   1.1431435      316.61958     -109.73838     -23545.072    
    620000   1.134631       314.59377      218.31083     -23536.444    
    621000   1.1465813      323.97265      800.69543     -23469.918    
    622000   1.1306737      330.03406     -474.3288      -23427.47     
    623000   1.1473002      320.29502      585.22942     -23514.921    
    624000   1.1426255      316.15235      164.38713     -23596.898    
    625000   1.135099       325.60401     -977.92235     -23400.139    
    626000   1.1482328      326.568        625.81278     -23542.777    
    627000   1.1419169      328.70832      289.70585     -23385.159    
    628000   1.1284672      317.00264      336.00724     -23416.147    
    629000   1.1516036      320.31514      536.07753     -23500.313    
    630000   1.1355592      319.68265     -662.45036     -23526.221    
    631000   1.1380696      328.73861     -127.95149     -23296.988    
    632000   1.137321       328.86772      664.34374     -23497.452    
    633000   1.1422639      317.98199      431.45702     -23501.754    
    634000   1.1408979      328.91472     -254.93367     -23456.749    
    635000   1.1383005      322.48344      473.67623     -23432.962    
    636000   1.1352253      321.89278      64.24116      -23477.845    
    637000   1.1500258      325.20619      636.76461     -23465.533    
    638000   1.1414973      326.92111      583.69228     -23503.383    
    639000   1.1238965      327.31357     -63.049311     -23574.754    
    640000   1.1369334      315.64622     -180.49804     -23632.256    
    641000   1.1314632      322.37463     -789.95446     -23567.635    
    642000   1.1388601      317.43111      103.4715      -23593.388    
    643000   1.1455162      338.70843      85.365475     -23376.384    
    644000   1.1411876      316.66515      1191.7367     -23474.685    
    645000   1.1404031      323.18515      466.96483     -23514.901    
    646000   1.1339408      312.52283      110.62431     -23515.53     
    647000   1.1245987      331.99132     -798.85372     -23392.538    
    648000   1.14755        326.62572      1102.0988     -23549.36     
    649000   1.1271011      318.51393     -626.92737     -23390.281    
    650000   1.1388463      322.32623      640.14643     -23536.751    
    651000   1.1293926      322.35736      175.84676     -23497.04     
    652000   1.1362954      328.10174      99.916176     -23571.468    
    653000   1.1321206      321.49887     -739.12927     -23487.253    
    654000   1.1299159      325.68527      269.42994     -23396.235    
    655000   1.1531172      323.93341      422.90486     -23435.248    
    656000   1.1327091      329.35528     -467.6204      -23341.742    
    657000   1.1433468      322.969       -877.14312     -23562.126    
    658000   1.1330975      324.59966     -678.34325     -23382.129    
    659000   1.1435155      312.81952     -534.25004     -23613.034    
    660000   1.129768       318.75635     -1119.9722     -23481.034    
    661000   1.1402633      325.26811     -16.725437     -23424.327    
    662000   1.1451657      315.50736     -982.58291     -23535.352    
    663000   1.1378845      314.11305     -605.95705     -23482.496    
    664000   1.1394766      322.1365       571.42333     -23520.138    
    665000   1.1303597      316.07772      18.582668     -23471.1      
    666000   1.1410642      317.87165      259.79208     -23451.422    
    667000   1.1514313      324.09595      797.45582     -23453.017    
    668000   1.1457724      329.49904     -161.86229     -23434.426    
    669000   1.1391595      321.14859     -236.96247     -23498.342    
    670000   1.1379663      328.80401     -134.35588     -23420.719    
    671000   1.1456237      317.70068     -652.97895     -23475.84     
    672000   1.1354539      325.03741     -303.46919     -23471.253    
    673000   1.145096       320.92467      625.03636     -23437.562    
    674000   1.1409105      311.48104     -430.97765     -23531.708    
    675000   1.1368815      327.1497      -261.5158      -23546.134    
    676000   1.1351593      322.97656     -110.6451      -23418.116    
    677000   1.1316246      329.87761     -426.95516     -23356.587    
    678000   1.1417405      318.9971       986.97784     -23531.965    
    679000   1.1450419      321.88592      166.8825      -23536.112    
    680000   1.1457411      335.50073      84.661619     -23413.142    
    681000   1.1423299      316.22479      42.976947     -23481.597    
    682000   1.1564444      316.11402      1074.1736     -23560.24     
    683000   1.1299679      329.71195      410.87424     -23453.563    
    684000   1.1386118      315.58408      189.88727     -23477.449    
    685000   1.1352519      325.74303      38.103359     -23494.619    
    686000   1.1225143      328.68882     -644.6961      -23476.821    
    687000   1.1449832      319.16523      767.98827     -23531.254    
    688000   1.1275481      328.70745      218.34696     -23395.323    
    689000   1.1552449      318.62299      1290.6794     -23513.231    
    690000   1.1319263      335.46235      73.473772     -23378.436    
    691000   1.1342312      325.49437     -696.69927     -23521.305    
    692000   1.1306728      325.26006     -359.85201     -23443.238    
    693000   1.1364249      326.04859     -288.71255     -23485.259    
    694000   1.1533083      318.46089      167.94894     -23547.17     
    695000   1.1395558      323.77123     -415.26097     -23496.746    
    696000   1.147142       319.12428      238.18129     -23416.679    
    697000   1.1321545      318.13683      604.95431     -23487.222    
    698000   1.1478586      320.98682     -299.52801     -23540.392    
    699000   1.1370767      326.13871      54.742376     -23478.412    
    700000   1.1323499      313.83196      347.45323     -23621.358    
    701000   1.1391183      323.29867      417.34165     -23455.292    
    702000   1.1303669      330.49728     -385.4691      -23438.904    
    703000   1.1322026      327.13752      215.51784     -23427.074    
    704000   1.1409433      323.78183      772.07146     -23471.006    
    705000   1.1460179      313.01764      842.77779     -23575.257    
    706000   1.124923       329.61148     -157.31613     -23432.35     
    707000   1.1374363      318.81453      323.75822     -23506.779    
    708000   1.1314221      318.57117     -805.21864     -23467.849    
    709000   1.1325294      328.32479      623.10847     -23416.257    
    710000   1.1354362      321.83179     -725.77284     -23424.093    
    711000   1.1456248      321.96222      532.01606     -23501.411    
    712000   1.139323       321.11139      596.82836     -23586.385    
    713000   1.1481019      320.19364      154.91752     -23557.375    
    714000   1.1422668      322.14742      208.77683     -23506.111    
    715000   1.1462371      333.74327      431.04526     -23458.923    
    716000   1.1442         320.76693      115.87123     -23443.502    
    717000   1.1490035      320.50807      21.746108     -23556.402    
    718000   1.1226234      314.58721      143.37333     -23508.304    
    719000   1.1442261      328.1816       1037.3195     -23409.994    
    720000   1.1436712      333.81298      104.88119     -23427.561    
    721000   1.1323914      327.19234     -327.23857     -23363.984    
    722000   1.1280918      327.87784     -378.26765     -23462.974    
    723000   1.1500196      323.41971      998.81141     -23458.514    
    724000   1.1297744      323.72169     -781.70222     -23440.789    
    725000   1.1408631      321.27842      215.80392     -23607.641    
    726000   1.1191649      324.81521     -98.917642     -23430.769    
    727000   1.1508259      326.04264      810.95877     -23538.305    
    728000   1.130412       314.50163     -1465.8123     -23574.435    
    729000   1.1451103      328.34232     -20.853097     -23450.74     
    730000   1.1370024      323.73464     -264.79366     -23513.192    
    731000   1.1356438      322.15263      201.32092     -23485.925    
    732000   1.1496251      322.06866      741.81392     -23490.559    
    733000   1.1383681      318.48644     -874.36546     -23483.415    
    734000   1.1547848      320.26829     -44.11661      -23599.953    
    735000   1.1403972      326.64307     -467.92512     -23422.821    
    736000   1.1569611      319.58743      1409.0378     -23552.885    
    737000   1.1325988      327.47811     -637.91548     -23409.761    
    738000   1.1376493      319.60838     -82.399306     -23479.175    
    739000   1.1396869      317.95156     -97.312566     -23554.702    
    740000   1.1412747      317.22713     -921.91512     -23520.276    
    741000   1.130672       322.44965     -363.73373     -23415.468    
    742000   1.1371573      324.62931      184.14511     -23479.656    
    743000   1.1261197      324.93035     -99.34972      -23539.478    
    744000   1.1244353      316.97324     -543.44179     -23570.353    
    745000   1.1391613      319.87606      838.73484     -23533.817    
    746000   1.1430786      323.3699      -200.23059     -23469.096    
    747000   1.1428167      332.33406      509.25133     -23480.047    
    748000   1.1274344      319.1036      -222.70019     -23566.302    
    749000   1.1332265      328.72689     -8.7992074     -23449.245    
    750000   1.1308881      325.60463     -277.16611     -23450.347    
    751000   1.142423       314.26282      27.005158     -23603.378    
    752000   1.1303675      327.47586      452.82388     -23481.533    
    753000   1.1314065      322.10715     -294.00534     -23439.816    
    754000   1.1408283      326.82481      509.47258     -23483.808    
    755000   1.1300075      318.88561     -1466.5352     -23557.72     
    756000   1.1397662      316.19124      352.78977     -23592.792    
    757000   1.1463178      337.68591      337.53967     -23481.343    
    758000   1.1473084      327.26691      600.23698     -23547.293    
    759000   1.1455111      324.82803      477.43461     -23599.542    
    760000   1.1440754      320.63378      826.80157     -23501.073    
    761000   1.1407423      325.56108     -48.847706     -23505.352    
    762000   1.138941       321.53704      301.39379     -23415.95     
    763000   1.1382155      327.94127     -161.90146     -23519.376    
    764000   1.1317808      324.68636      343.36405     -23458.647    
    765000   1.1453758      336.6192       328.22442     -23458.181    
    766000   1.1322826      324.62598      345.76536     -23477.537    
    767000   1.1410909      316.98296      567.90812     -23598.143    
    768000   1.1322721      323.92515     -998.58996     -23425.494    
    769000   1.1470212      321.25363     -143.86544     -23507.318    
    770000   1.1420939      325.74911     -92.703322     -23538.627    
    771000   1.1365083      316.10765      765.25587     -23503.839    
    772000   1.131772       337.90066     -470.75684     -23399.756    
    773000   1.1459399      317.97508     -306.91223     -23628.278    
    774000   1.1225178      322.57965     -128.38704     -23514.094    
    775000   1.145846       317.05116     -277.13744     -23667.099    
    776000   1.1300568      322.37897      7.0064044     -23480.764    
    777000   1.1369825      312.82637      260.17403     -23664.249    
    778000   1.1302595      324.58429     -365.49125     -23467.014    
    779000   1.1423931      318.80112      772.62403     -23588.649    
    780000   1.1252786      320.72326     -1170.8246     -23462.383    
    781000   1.1434642      326.97308      543.17682     -23477.475    
    782000   1.1300391      324.45759     -337.58802     -23390.427    
    783000   1.1329724      321.26004     -574.89005     -23444.311    
    784000   1.134869       319.83562      378.10428     -23529.464    
    785000   1.1399185      312.62668      372.3783      -23558.87     
    786000   1.1298351      319.09717      22.514396     -23478.401    
    787000   1.1478744      320.70845      1057.1644     -23458.623    
    788000   1.1479591      304.0942       288.83133     -23652.149    
    789000   1.1564879      322.90994      347.30222     -23523        
    790000   1.1356012      323.18326     -75.617551     -23512.07     
    791000   1.1427821      320.77978      1337.358      -23471.494    
    792000   1.1384971      318.13661      1029.086      -23521.345    
    793000   1.1341446      312.41612      97.979962     -23547.828    
    794000   1.133469       333.81779      153.92995     -23377.404    
    795000   1.1407706      320.67565     -141.2733      -23507.131    
    796000   1.1270742      319.83421     -639.01071     -23547.12     
    797000   1.1329817      314.10254     -1168.6768     -23530.753    
    798000   1.1381029      311.89605      908.42675     -23568.936    
    799000   1.1296199      330.47389      316.47069     -23350.236    
    800000   1.1438882      323.80983      369.55443     -23584.003    
    801000   1.1286053      324.43465     -373.48707     -23510.544    
    802000   1.1389374      314.26346      476.46949     -23578.141    
    803000   1.1436426      327.91969      263.69921     -23522.209    
    804000   1.1440977      325.62728     -674.70594     -23487.599    
    805000   1.1299989      322.70267      120.95893     -23442.282    
    806000   1.1364007      322.23546      121.93867     -23499.484    
    807000   1.1441477      323.04112      1037.1125     -23295.691    
    808000   1.1174344      325.30724      35.553013     -23417.4      
    809000   1.1423556      323.82433     -148.43687     -23523.048    
    810000   1.1256426      326.38487     -504.7968      -23385.963    
    811000   1.1521383      318.55264      619.44534     -23493.786    
    812000   1.1302244      327.47421      317.05211     -23359.891    
    813000   1.1359556      325.39859     -654.9716      -23402.776    
    814000   1.1318266      322.36344     -330.95403     -23356.02     
    815000   1.1437387      312.21473      39.165893     -23459.956    
    816000   1.1269224      321.3065      -467.19888     -23392.621    
    817000   1.1364531      326.8216       333.69791     -23367.866    
    818000   1.1447536      318.5588       701.79167     -23662.203    
    819000   1.1351811      334.62232     -1319.0024     -23442.083    
    820000   1.1412696      317.49845     -250.87612     -23617.93     
    821000   1.1347669      323.00367     -714.07686     -23540.471    
    822000   1.1455559      326.68845      540.99419     -23477.174    
    823000   1.1419584      320.06986      360.43653     -23495.038    
    824000   1.1439579      333.33031      472.68154     -23320.027    
    825000   1.1341165      308.37953     -969.84688     -23637.236    
    826000   1.1343216      313.63712      98.851563     -23547.236    
    827000   1.139293       331.37987      71.98157      -23440.417    
    828000   1.1380801      317.81863      139.24125     -23553.379    
    829000   1.1434972      321.6172       304.02198     -23507.662    
    830000   1.143334       312.2149       725.67296     -23538.358    
    831000   1.1371949      320.86607     -332.71408     -23447.393    
    832000   1.1335647      313.49717     -357.61287     -23509.792    
    833000   1.1515072      323.13447      39.554122     -23429.882    
    834000   1.1335596      318.64431     -810.6906      -23524.477    
    835000   1.1387615      325.28469      260.26778     -23434.396    
    836000   1.1433813      329.08864      554.15152     -23443.712    
    837000   1.1311698      323.19587     -102.9951      -23501.196    
    838000   1.1417691      319.52051     -682.84072     -23559.596    
    839000   1.1405994      325.12314     -638.93204     -23530.367    
    840000   1.1378748      318.72887      696.63246     -23511.712    
    841000   1.1445153      315.69142     -72.3121       -23646.091    
    842000   1.13373        317.28746     -622.56515     -23501.582    
    843000   1.1465722      327.25915      468.49942     -23420.5      
    844000   1.1447818      319.18587     -29.398213     -23560.338    
    845000   1.1344572      320.45863     -139.11189     -23468.942    
    846000   1.1432388      317.40036      329.69996     -23656.171    
    847000   1.1404894      317.36114      22.66223      -23457.211    
    848000   1.1333791      325.02087      431.53128     -23489.262    
    849000   1.1373132      327.12233     -392.80519     -23508.35     
    850000   1.1405098      326.94199     -128.01514     -23467.145    
    851000   1.1373025      320.09081     -469.02273     -23485.328    
    852000   1.1371814      326.78303     -717.97299     -23524.909    
    853000   1.1444449      309.80728      478.67945     -23610.971    
    854000   1.1439518      328.66335     -14.991727     -23451.929    
    855000   1.1265523      314.02657     -658.61369     -23480.048    
    856000   1.1431486      336.93109      783.09854     -23383.293    
    857000   1.1433991      321.51515      222.47341     -23535.853    
    858000   1.1393871      319.63153      518.06336     -23416.992    
    859000   1.1435232      321.42906     -267.4292      -23476.654    
    860000   1.1381874      333.56461     -15.525141     -23433.983    
    861000   1.1246856      325.53027     -2.6252521     -23413.198    
    862000   1.1471338      323.1976       1330.1958     -23494.353    
    863000   1.1450444      319.49102      171.68494     -23419.989    
    864000   1.1292237      316.36018     -415.85145     -23493.138    
    865000   1.1407016      314.77406      210.8795      -23636.892    
    866000   1.1297481      309.96265     -355.33837     -23509.306    
    867000   1.1340176      326.19205     -201.94709     -23441.515    
    868000   1.126287       325.78658     -663.10969     -23454.853    
    869000   1.124719       320.47059     -468.17907     -23440.903    
    870000   1.1459437      329.44027      818.85653     -23466.707    
    871000   1.1382008      314.61032     -401.39355     -23568.057    
    872000   1.1464243      322.24646     -1074.4485     -23503.908    
    873000   1.1333799      323.75667     -619.0225      -23501.002    
    874000   1.1304766      314.62006     -714.02389     -23535.464    
    875000   1.1472828      328.55395      306.57954     -23459.758    
    876000   1.1374844      312.34885      277.95888     -23518.589    
    877000   1.1423059      320.34553      86.295885     -23577.858    
    878000   1.1407885      321.2044      -231.20967     -23490.026    
    879000   1.1409743      316.68096      9.4632912     -23582.633    
    880000   1.1298194      311.82797      394.78208     -23622.494    
    881000   1.1342205      326.23057     -892.50362     -23337.112    
    882000   1.1455909      318.7255       865.73628     -23540.868    
    883000   1.1288456      322.25135     -1034.8683     -23364.648    
    884000   1.1359951      321.71289      65.556031     -23474.671    
    885000   1.1467811      330.65324     -14.005845     -23428.316    
[...]
   9745000   1.1393563      332.35353      387.05904     -23372.794    
   9746000   1.145026       319.4228       309.71493     -23466.686    
   9747000   1.131004       322.6422      -1175.4236     -23452.783    
   9748000   1.1505372      310.52124      1101.6428     -23510.202    
   9749000   1.1350671      320.13624     -32.174897     -23484.608    
   9750000   1.1457615      321.2563       689.2474      -23474.475    
   9751000   1.1409546      320.36342      156.82624     -23626.131    
   9752000   1.1313606      312.53763     -1050.5773     -23624.346    
   9753000   1.1375878      325.51323      194.56725     -23481.563    
   9754000   1.1311372      316.28835     -353.67132     -23571.923    
   9755000   1.1369604      323.65351      63.483912     -23520.987    
   9756000   1.1352384      325.55643      71.66046      -23530.417    
   9757000   1.1432275      319.36158      633.15217     -23534.86     
   9758000   1.1304019      328.21742     -174.98801     -23418.01     
   9759000   1.1334303      326.66258     -3.4614391     -23567.832    
   9760000   1.131507       318.93688      214.114       -23450.337    
   9761000   1.1435108      327.43996      666.98383     -23398.982    
   9762000   1.1328137      313.44269     -570.00391     -23469.583    
   9763000   1.1485596      321.387        325.31242     -23385.137    
   9764000   1.1321202      319.82969     -363.37788     -23437.057    
   9765000   1.149534       321.98474     -194.95719     -23596.41     
   9766000   1.1394337      320.17976     -278.10521     -23498.286    
   9767000   1.1392904      317.96218      200.98643     -23491.756    
   9768000   1.1283763      332.46548     -314.51054     -23466.795    
   9769000   1.1372165      344.09912      233.3023      -23274.165    
   9770000   1.1398012      321.28045      176.27814     -23477.41     
   9771000   1.1385869      317.67857     -112.49143     -23536.187    
   9772000   1.1396806      318.18377     -579.78395     -23588.651    
   9773000   1.1439934      319.20668     -346.69479     -23465.72     
   9774000   1.1333492      322.09546     -265.21936     -23480.208    
   9775000   1.1403325      318.47822      330.99322     -23517.639    
   9776000   1.1229534      332.85036     -379.98186     -23410.436    
   9777000   1.1369062      328.29578      97.438334     -23514.294    
   9778000   1.1385328      325.89076      440.57664     -23468.873    
   9779000   1.1343029      319.32264      655.50839     -23493.347    
   9780000   1.1351862      320.21227     -120.0372      -23513.788    
   9781000   1.1496324      323.75401      582.37014     -23594.352    
   9782000   1.1345393      317.84525      245.00029     -23465.884    
   9783000   1.1353784      323.18427     -761.80339     -23443.734    
   9784000   1.1383094      308.74304      66.69936      -23557.619    
   9785000   1.1372782      323.4293       1056.8212     -23442.4      
   9786000   1.137395       320.36885      306.49835     -23497.658    
   9787000   1.1353021      322.60886      43.075656     -23486.283    
   9788000   1.131264       318.9765      -230.69578     -23469.148    
   9789000   1.1409567      318.76881      515.50108     -23410.195    
   9790000   1.1415831      313.0621      -282.1739      -23539.513    
   9791000   1.1356983      328.94441     -382.06207     -23416.15     
   9792000   1.134372       320.39594      219.42126     -23399.183    
   9793000   1.1459727      317.87177      1592.1892     -23491.159    
   9794000   1.1368507      320.12037      306.85346     -23476.781    
   9795000   1.1435424      315.58789      203.51012     -23538.67     
   9796000   1.1475582      318.34557      611.95691     -23578.375    
   9797000   1.1497166      323.08069      598.5194      -23502.047    
   9798000   1.1531414      329.52821      408.99813     -23462.655    
   9799000   1.134528       326.62045     -406.5947      -23399.898    
   9800000   1.1335668      313.5189      -910.58599     -23614.083    
   9801000   1.1429194      317.93431      19.48037      -23523.973    
   9802000   1.1449569      327.89411      23.696511     -23452.359    
   9803000   1.1387071      316.28181     -825.06963     -23472.789    
   9804000   1.1528904      331.02819      393.70854     -23510.225    
   9805000   1.1438851      327.83692      696.5137      -23476.754    
   9806000   1.1297644      324.12685     -941.81344     -23590.327    
   9807000   1.1437999      319.6501      -520.66848     -23512.406    
   9808000   1.1429839      321.16141     -124.55179     -23425.727    
   9809000   1.1406486      321.61242     -26.183866     -23412.2      
   9810000   1.1409286      316.25758      12.858277     -23466.066    
   9811000   1.1518285      319.83137     -83.932049     -23481.992    
   9812000   1.1334076      319.47542     -448.70221     -23424.645    
   9813000   1.1469351      322.95797      63.285536     -23535.953    
   9814000   1.1494443      326.30156     -362.13863     -23478.741    
   9815000   1.1502644      326.36762      48.484418     -23507.326    
   9816000   1.1403518      326.54597     -400.18924     -23470.147    
   9817000   1.1280087      314.59459     -203.16993     -23497.8      
   9818000   1.1420731      316.6223      -94.150692     -23486.553    
   9819000   1.1407086      322.4273      -387.78864     -23494.65     
   9820000   1.1370571      315.61302      98.402296     -23498.57     
   9821000   1.1295752      329.22096      852.22261     -23305.571    
   9822000   1.122172       313.61477      69.624757     -23578.471    
   9823000   1.1338849      313.87514      88.072201     -23578.555    
   9824000   1.1357164      324.31317     -352.69526     -23450.159    
   9825000   1.1418107      326.82627      734.81884     -23525.962    
   9826000   1.1380134      318.87144      677.69332     -23397.037    
   9827000   1.1332564      319.63083      311.69077     -23430.144    
   9828000   1.1259358      323.92976      490.23185     -23474.113    
   9829000   1.1378567      325.20806      352.10281     -23359.828    
   9830000   1.1336254      324.11534     -826.91293     -23455.383    
   9831000   1.1432901      326.06036     -100.59085     -23555.12     
   9832000   1.134788       324.36713      698.67559     -23398.639    
   9833000   1.135505       325.32102      214.29689     -23536.563    
   9834000   1.1384359      329.4199       108.00387     -23485.778    
   9835000   1.1290121      320.7861       69.866421     -23444.178    
   9836000   1.136889       325.10454      570.55822     -23490.273    
   9837000   1.1412873      332.11521     -99.117881     -23497.409    
   9838000   1.1352187      320.86333      97.677882     -23488.826    
   9839000   1.1459516      332.94877      213.20683     -23438.823    
   9840000   1.1383899      322.86289     -24.808846     -23510.299    
   9841000   1.1439693      320.50405      203.68069     -23483.264    
   9842000   1.1567358      321.01937      308.44219     -23469.578    
   9843000   1.1401683      332.02665     -548.01532     -23363.579    
   9844000   1.1533954      322.5223       554.28991     -23504.318    
   9845000   1.1399535      313.96747     -211.34081     -23602.206    
   9846000   1.1456418      311.82838     -665.61638     -23476.383    
   9847000   1.1453594      329.77573      58.951847     -23441.46     
   9848000   1.1297282      316.16318     -462.61821     -23550.336    
   9849000   1.140237       325.24608      481.48169     -23435.075    
   9850000   1.1334324      324.44908      421.39903     -23431.253    
   9851000   1.132321       326.41018      180.7951      -23473.955    
   9852000   1.1322227      324.26941     -736.72484     -23472.799    
   9853000   1.1410691      321.75106      618.61303     -23499.195    
   9854000   1.148644       323.32262      335.28965     -23512.063    
   9855000   1.1234799      321.2141      -304.63611     -23517.598    
   9856000   1.1303474      325.47052     -542.82001     -23390.932    
   9857000   1.1455567      321.12733      66.141803     -23574.235    
   9858000   1.1337406      315.96494     -204.09844     -23517.372    
   9859000   1.1349543      323.6654      -163.19331     -23494.44     
   9860000   1.1324321      321.37366      338.29649     -23431.038    
   9861000   1.1359711      315.60778      303.76204     -23488.49     
   9862000   1.1405858      326.68091      36.792977     -23467.222    
   9863000   1.1246293      325.30522     -1054.1003     -23408.647    
   9864000   1.1405574      323.55332     -188.6156      -23564.394    
   9865000   1.1357758      321.27528     -798.46274     -23485.859    
   9866000   1.138286       310.51492      1042.5719     -23641.053    
   9867000   1.1288213      330.78006     -664.45933     -23390.655    
   9868000   1.1403473      318.01762     -216.09433     -23536.081    
   9869000   1.1311054      328.06919      303.91468     -23441.666    
   9870000   1.1446105      326.27505      534.06606     -23468.446    
   9871000   1.1411909      325.82694      40.606464     -23414.282    
   9872000   1.1384106      321.30059      520.47781     -23464.569    
   9873000   1.127996       324.78242      56.431793     -23428.726    
   9874000   1.1443214      322.79913      541.87198     -23422.082    
   9875000   1.1401984      320.77479     -281.26431     -23459.533    
   9876000   1.1463139      314.91501     -203.4742      -23568.47     
   9877000   1.151114       324.60171      52.357802     -23502.469    
   9878000   1.1317031      322.4901      -101.21693     -23417.661    
   9879000   1.1425953      330.86716     -298.39776     -23443.097    
   9880000   1.1419797      313.88981      252.01892     -23485.587    
   9881000   1.1415861      325.7516      -445.39063     -23487.496    
   9882000   1.1435997      322.27258     -241.66953     -23480.805    
   9883000   1.1508279      329.52567      399.80035     -23498.208    
   9884000   1.1319864      330.2639       500.26651     -23468.804    
   9885000   1.1426399      322.02823     -61.462228     -23526        
   9886000   1.1295476      319.43985     -349.61973     -23467.223    
   9887000   1.1343867      326.58847     -250.26914     -23502.953    
   9888000   1.1370114      307.79432     -290.25875     -23604.012    
   9889000   1.1365978      322.35739     -186.43246     -23509.59     
   9890000   1.1357532      315.17985     -663.27182     -23583.584    
   9891000   1.1373687      325.18919      184.25426     -23470.395    
   9892000   1.144686       315.03212     -148.79936     -23567.175    
   9893000   1.1436903      324.84434      493.41065     -23335.593    
   9894000   1.1431741      319.21799     -310.52446     -23533.737    
   9895000   1.1398116      326.10021     -376.28854     -23408.75     
   9896000   1.1335694      311.26547     -123.37086     -23493.145    
   9897000   1.1315225      326.24686     -382.10694     -23474.52     
   9898000   1.1339776      333.62517     -347.2876      -23425.835    
   9899000   1.1392461      319.49005     -87.912454     -23580.53     
   9900000   1.1293291      322.75889     -319.15866     -23528.017    
   9901000   1.1492663      331.07497      781.81554     -23540.112    
   9902000   1.1310231      325.35291     -471.93903     -23401.429    
   9903000   1.1379464      331.25003      886.1028      -23433.048    
   9904000   1.1384559      318.78184     -812.24211     -23540.445    
   9905000   1.14502        320.97476      186.0225      -23443.554    
   9906000   1.1326049      318.35081      352.90691     -23577.406    
   9907000   1.1349002      329.31739     -17.452259     -23415.166    
   9908000   1.1377856      326.51775     -262.31513     -23439.503    
   9909000   1.1312144      321.8544      -99.372548     -23452.532    
   9910000   1.1470298      320.61679     -496.43378     -23599.886    
   9911000   1.1447534      326.58858      522.43912     -23392.603    
   9912000   1.1422991      321.47075     -506.95967     -23512.794    
   9913000   1.1434247      315.76327      472.0165      -23587.363    
   9914000   1.1407575      321.07693      273.05593     -23444.236    
   9915000   1.1368055      322.08464      440.16987     -23435.621    
   9916000   1.13585        319.93765     -179.54432     -23454.694    
   9917000   1.1490683      324.74684      198.85852     -23488.697    
   9918000   1.1303703      319.98619      158.10542     -23477.132    
   9919000   1.140165       321.81931     -417.60085     -23502.418    
   9920000   1.1330758      320.77021     -591.91227     -23460.314    
   9921000   1.1176229      317.5504      -728.82703     -23473.296    
   9922000   1.1281518      333.05487     -63.001258     -23394.92     
   9923000   1.1257706      308.47372     -577.53745     -23527.129    
   9924000   1.1471402      321.39608     -263.66854     -23479.876    
   9925000   1.1397092      321.35239     -165.43163     -23463.218    
   9926000   1.1359502      328.98288      152.55306     -23398.486    
   9927000   1.1410355      320.33674      687.64098     -23457.484    
   9928000   1.1390392      327.68006      622.16856     -23472.587    
   9929000   1.1348588      322.24507     -251.96852     -23450.72     
   9930000   1.1452345      327.87039     -195.8705      -23383.7      
   9931000   1.1463994      321.18033      532.63756     -23410.841    
   9932000   1.1439574      320.18198      448.63724     -23466.169    
   9933000   1.1297705      332.80151     -421.16325     -23460.682    
   9934000   1.1450903      315.20153      58.5051       -23608.751    
   9935000   1.144815       319.7573      -133.94995     -23538.702    
   9936000   1.1354523      324.55454     -161.96287     -23491.102    
   9937000   1.1475972      334.52695      267.69631     -23457.791    
   9938000   1.1318255      318.65295     -693.8874      -23551.224    
   9939000   1.1413356      318.47323      325.55224     -23498.995    
   9940000   1.1430116      327.25888     -359.24333     -23380.528    
   9941000   1.1440909      322.50787      76.708776     -23471.285    
   9942000   1.1479632      325.35818      440.26099     -23410.695    
   9943000   1.1465671      322.42507     -392.60652     -23471.955    
   9944000   1.1459085      320.27781     -210.74554     -23484.405    
   9945000   1.1513006      316.12858      169.04554     -23551.526    
   9946000   1.1394285      318.22858      345.93703     -23395.217    
   9947000   1.148226       321.31962      330.67389     -23476.884    
   9948000   1.1499854      320.34393     -539.16768     -23520.128    
   9949000   1.1334846      321.49471      80.954604     -23419.183    
   9950000   1.1384733      328.77794      572.75572     -23508.247    
   9951000   1.1410372      319.96099      82.273995     -23589.984    
   9952000   1.1305925      322.05682     -590.50706     -23459.922    
   9953000   1.1281698      315.95748      570.65164     -23385.439    
   9954000   1.1318935      324.69588     -124.6841      -23544.047    
   9955000   1.1446001      318.18925     -308.66738     -23568.789    
   9956000   1.142391       331.80233      412.68661     -23371.374    
   9957000   1.1341133      325.35806     -650.11712     -23499.797    
   9958000   1.1403365      316.78316     -106.66533     -23566.562    
   9959000   1.140729       322.38292      667.626       -23559.475    
   9960000   1.1446891      308.25645      264.66363     -23661.189    
   9961000   1.1307195      320.01233      10.948786     -23534.814    
   9962000   1.1551322      315.7142       907.84843     -23573.292    
   9963000   1.1364473      321.31851     -797.98407     -23540.847    
   9964000   1.1446321      327.95357      895.05556     -23380.291    
   9965000   1.139849       328.61861     -19.754377     -23404.64     
   9966000   1.1479396      322.9717       376.08391     -23583.264    
   9967000   1.1345832      318.55162      754.59865     -23506.836    
   9968000   1.1492807      322.33521      632.04656     -23579.646    
   9969000   1.1434262      317.31441      525.80353     -23581.004    
   9970000   1.1400875      322.87575     -143.62707     -23403.506    
   9971000   1.1377184      328.51746     -370.51882     -23429.416    
   9972000   1.1460459      330.36293      335.7493      -23456.682    
   9973000   1.1304899      314.12361     -351.37706     -23512.343    
   9974000   1.1487511      326.5341       1246.9737     -23478.971    
   9975000   1.1328665      327.24485     -401.12459     -23428.586    
   9976000   1.1413643      314.08733     -224.03307     -23577.113    
   9977000   1.1384608      328.09806     -286.73199     -23481.206    
   9978000   1.1422035      316.02528      180.50989     -23469.027    
   9979000   1.132809       327.18526      260.70165     -23403.497    
   9980000   1.1290236      333.29819      319.37862     -23443.532    
   9981000   1.1382405      327.26         527.74644     -23381.368    
   9982000   1.1463961      322.58323      308.68264     -23462.303    
   9983000   1.1259397      335.54185     -1052.8099     -23398.92     
   9984000   1.1402091      317.19277      109.70159     -23594.788    
   9985000   1.129537       325.84378     -266.39325     -23434.394    
   9986000   1.1379854      322.0255      -81.448768     -23496.714    
   9987000   1.1386726      324.62806      170.04874     -23526.457    
   9988000   1.1298056      323.73901     -395.612       -23513.335    
   9989000   1.1488332      325.03452      4.4098452     -23468.775    
   9990000   1.1381136      322.93269     -421.34126     -23445.685    
   9991000   1.1403851      323.10255      129.40503     -23491.905    
   9992000   1.1421696      319.56529     -370.8601      -23504.309    
   9993000   1.1414413      337.09232      775.22357     -23339.023    
   9994000   1.1408393      327.01097      82.808784     -23419.779    
   9995000   1.1481659      330.95037      481.89198     -23426.905    
   9996000   1.1441533      336.01042     -423.16477     -23290.589    
   9997000   1.1491305      325.33271      180.55908     -23498.528    
   9998000   1.1419781      316.45158     -362.72195     -23575.719    
   9999000   1.1412197      334.21686     -693.94795     -23388.268    
  10000000   1.1459474      327.43263      612.0248      -23547.919    
Loop time of 34893.1 on 32 procs for 10000000 steps with 3324 atoms

Performance: 24.761 ns/day, 0.969 hours/ns, 286.590 timesteps/s
99.5% CPU use with 32 MPI tasks x no OpenMP threads

MPI task timing breakdown:
Section |  min time  |  avg time  |  max time  |%varavg| %total
---------------------------------------------------------------
Pair    | 11746      | 12784      | 13648      | 471.5 | 36.64
Bond    | 41.593     | 44.001     | 46.536     |  17.6 |  0.13
Kspace  | 6770.4     | 7639.1     | 8668.8     | 602.8 | 21.89
Neigh   | 1797.3     | 1832.7     | 2023.8     |  94.6 |  5.25
Comm    | 2470.9     | 2667.6     | 2783.1     | 113.4 |  7.65
Output  | 0.56141    | 4.2424     | 118.18     | 993.6 |  0.01
Modify  | 9109.4     | 9531.1     | 9775.7     | 170.3 | 27.32
Other   |            | 390.6      |            |       |  1.12

Nlocal:        103.875 ave         123 max          94 min
Histogram: 3 4 8 7 4 3 2 0 0 1
Nghost:        4370.41 ave        4406 max        4338 min
Histogram: 3 3 4 4 5 2 3 1 3 4
Neighs:        42301.8 ave       50067 max       36390 min
Histogram: 1 4 3 7 5 5 6 0 0 1

Total # of neighbors = 1353657
Ave neighs/atom = 407.23736
Ave special neighs/atom = 2.0649819
Neighbor list builds = 1378036
Dangerous builds = 0
ERROR: Cannot reset timestep with active dump - must undump first (../output.cpp:637)
Last command: reset_timestep 0
srun: error: cmp210: tasks 0-31: Exited with exit code 1
srun: launch/slurm: _step_signal: Terminating StepId=2016068.0
