created by fftool

3486 atoms
2324 bonds
1324 angles
6 atom types
3 bond types
2 angle types
0.000000 32.736650 xlo xhi
0.000000 32.736650 ylo yhi
0.000000 32.736650 zlo zhi

Atoms

      1       1    1  -1.112800  1.827669e+01  1.340851e+01  2.288022e+01  # Ow water
      2       1    2   0.556400  1.764128e+01  1.336145e+01  2.216589e+01  # Hw water
      3       1    2   0.556400  1.911440e+01  1.319184e+01  2.247091e+01  # Hw water
      4       2    1  -1.112800  2.866748e+01  2.086734e+00  5.420423e+00  # Ow water
      5       2    2   0.556400  2.827345e+01  2.873555e+00  5.043750e+00  # Hw water
      6       2    2   0.556400  2.878117e+01  1.495479e+00  4.676299e+00  # Hw water
      7       3    1  -1.112800  2.184035e+01  1.051654e+01  1.857202e+01  # Ow water
      8       3    2   0.556400  2.203949e+01  9.645783e+00  1.891604e+01  # Hw water
      9       3    2   0.556400  2.187741e+01  1.109098e+01  1.933679e+01  # Hw water
     10       4    1  -1.112800  2.654295e+01  1.070979e+01  1.725576e+00  # Ow water
     11       4    2   0.556400  2.655429e+01  1.078373e+01  2.679847e+00  # Hw water
     12       4    2   0.556400  2.562641e+01  1.084547e+01  1.485224e+00  # Hw water
     13       5    1  -1.112800  1.238895e+01  2.005774e+00  1.581319e+01  # Ow water
     14       5    2   0.556400  1.282851e+01  2.479762e+00  1.510725e+01  # Hw water
     15       5    2   0.556400  1.170773e+01  1.497375e+00  1.537308e+01  # Hw water
     16       6    1  -1.112800  2.732894e+01  2.231746e+01  1.904750e+01  # Ow water
     17       6    2   0.556400  2.739766e+01  2.182619e+01  1.822886e+01  # Hw water
     18       6    2   0.556400  2.659299e+01  2.291355e+01  1.890861e+01  # Hw water
     19       7    1  -1.112800  1.500805e+00  2.467757e+01  1.405169e+01  # Ow water
     20       7    2   0.556400  1.910916e+00  2.381383e+01  1.400709e+01  # Hw water
     21       7    2   0.556400  1.485516e+00  2.498310e+01  1.314469e+01  # Hw water
     22       8    1  -1.112800  2.065045e+01  1.219119e+01  2.466023e+01  # Ow water
     23       8    2   0.556400  2.123775e+01  1.260524e+01  2.402788e+01  # Hw water
     24       8    2   0.556400  2.103634e+01  1.239141e+01  2.551301e+01  # Hw water
     25       9    1  -1.112800  3.123814e+01  1.554848e+00  1.332174e+01  # Ow water
     26       9    2   0.556400  3.120981e+01  2.493286e+00  1.350818e+01  # Hw water
     27       9    2   0.556400  3.120969e+01  1.498961e+00  1.236660e+01  # Hw water
     28      10    1  -1.112800  1.951218e+01  6.771612e+00  8.827852e+00  # Ow water
     29      10    2   0.556400  1.940666e+01  7.462795e+00  9.481581e+00  # Hw water
     30      10    2   0.556400  1.959976e+01  5.967919e+00  9.340332e+00  # Hw water
     31      11    1  -1.112800  9.385318e+00  2.631852e+01  2.074485e+00  # Ow water
     32      11    2   0.556400  1.013101e+01  2.620445e+01  1.485278e+00  # Hw water
     33      11    2   0.556400  8.670558e+00  2.660270e+01  1.504759e+00  # Hw water
     34      12    1  -1.112800  1.726449e+00  1.495769e+01  2.180726e+01  # Ow water
     35      12    2   0.556400  1.631076e+00  1.470891e+01  2.272663e+01  # Hw water
     36      12    2   0.556400  1.498604e+00  1.416618e+01  2.131958e+01  # Hw water
     37      13    1  -1.112800  1.577243e+00  2.228058e+01  6.635445e+00  # Ow water
     38      13    2   0.556400  1.498882e+00  2.322015e+01  6.800676e+00  # Hw water
     39      13    2   0.556400  1.492184e+00  2.187708e+01  7.499264e+00  # Hw water
     40      14    1  -1.112800  2.554450e+01  8.515583e+00  2.387542e+00  # Ow water
     41      14    2   0.556400  2.626095e+01  8.272551e+00  2.973942e+00  # Hw water
     42      14    2   0.556400  2.578192e+01  8.128057e+00  1.545115e+00  # Hw water
     43      15    1  -1.112800  1.680976e+00  2.009404e+00  1.372590e+01  # Ow water
     44      15    2   0.556400  1.499380e+00  2.918213e+00  1.396531e+01  # Hw water
     45      15    2   0.556400  1.497365e+00  1.510291e+00  1.452177e+01  # Hw water
     46      16    1  -1.112800  5.558810e+00  1.109504e+01  1.859203e+01  # Ow water
     47      16    2   0.556400  6.263454e+00  1.174198e+01  1.862635e+01  # Hw water
     48      16    2   0.556400  4.868446e+00  1.151895e+01  1.808220e+01  # Hw water
     49      17    1  -1.112800  2.109721e+01  1.044779e+01  9.971587e+00  # Ow water
     50      17    2   0.556400  2.091037e+01  1.047646e+01  9.033238e+00  # Hw water
     51      17    2   0.556400  2.155521e+01  1.126909e+01  1.015030e+01  # Hw water
     52      18    1  -1.112800  2.332258e+01  1.914170e+01  1.976834e+01  # Ow water
     53      18    2   0.556400  2.388061e+01  1.955655e+01  1.911052e+01  # Hw water
     54      18    2   0.556400  2.271813e+01  1.859870e+01  1.926235e+01  # Hw water
     55      19    1  -1.112800  6.827112e+00  1.013353e+01  3.066788e+01  # Ow water
     56      19    2   0.556400  7.558397e+00  1.029326e+01  3.126448e+01  # Hw water
     57      19    2   0.556400  6.081115e+00  9.963009e+00  3.124289e+01  # Hw water
     58      20    1  -1.112800  2.036152e+01  1.996793e+01  2.222837e+01  # Ow water
     59      20    2   0.556400  2.111468e+01  1.997800e+01  2.163771e+01  # Hw water
     60      20    2   0.556400  1.960081e+01  1.997849e+01  2.164747e+01  # Hw water
     61      21    1  -1.112800  1.565511e+01  3.080387e+01  1.502891e+01  # Ow water
     62      21    2   0.556400  1.593410e+01  3.123787e+01  1.583516e+01  # Hw water
     63      21    2   0.556400  1.483440e+01  3.123724e+01  1.479470e+01  # Hw water
     64      22    1  -1.112800  2.034643e+00  1.016367e+01  2.811913e+01  # Ow water
     65      22    2   0.556400  2.906333e+00  1.030074e+01  2.774819e+01  # Hw water
     66      22    2   0.556400  1.453114e+00  1.013040e+01  2.735956e+01  # Hw water
     67      23    1  -1.112800  3.123091e+01  7.990549e+00  3.102450e+01  # Ow water
     68      23    2   0.556400  3.123808e+01  7.961374e+00  3.006778e+01  # Hw water
     69      23    2   0.556400  3.065650e+01  8.725908e+00  3.123788e+01  # Hw water
     70      24    1  -1.112800  1.299593e+01  3.115545e+01  1.671859e+01  # Ow water
     71      24    2   0.556400  1.233061e+01  3.124761e+01  1.740056e+01  # Hw water
     72      24    2   0.556400  1.382878e+01  3.123822e+01  1.718307e+01  # Hw water
     73      25    1  -1.112800  2.302869e+00  4.112228e+00  1.602077e+01  # Ow water
     74      25    2   0.556400  1.490866e+00  3.933306e+00  1.649497e+01  # Hw water
     75      25    2   0.556400  2.994410e+00  3.971762e+00  1.666751e+01  # Hw water
     76      26    1  -1.112800  1.111245e+01  1.589981e+01  1.738791e+01  # Ow water
     77      26    2   0.556400  1.041707e+01  1.538534e+01  1.779778e+01  # Hw water
     78      26    2   0.556400  1.146834e+01  1.532526e+01  1.671007e+01  # Hw water
     79      27    1  -1.112800  3.047072e+01  3.110840e+01  1.466412e+00  # Ow water
     80      27    2   0.556400  3.124024e+01  3.094736e+01  2.012434e+00  # Hw water
     81      27    2   0.556400  2.975873e+01  3.124888e+01  2.090557e+00  # Hw water
     82      28    1  -1.112800  3.252713e+00  1.731213e+01  1.622151e+00  # Ow water
     83      28    2   0.556400  3.790167e+00  1.809425e+01  1.497005e+00  # Hw water
     84      28    2   0.556400  3.859436e+00  1.658194e+01  1.499942e+00  # Hw water
     85      29    1  -1.112800  1.483598e+00  2.398051e+01  2.759210e+01  # Ow water
     86      29    2   0.556400  1.556974e+00  2.464030e+01  2.828168e+01  # Hw water
     87      29    2   0.556400  1.591053e+00  2.447168e+01  2.677758e+01  # Hw water
     88      30    1  -1.112800  1.008651e+01  1.714426e+01  8.556070e+00  # Ow water
     89      30    2   0.556400  1.084753e+01  1.748773e+01  9.024162e+00  # Hw water
     90      30    2   0.556400  9.653760e+00  1.657145e+01  9.189189e+00  # Hw water
     91      31    1  -1.112800  1.471655e+01  2.342707e+01  1.090660e+01  # Ow water
     92      31    2   0.556400  1.467207e+01  2.410083e+01  1.022815e+01  # Hw water
     93      31    2   0.556400  1.504722e+01  2.265153e+01  1.045335e+01  # Hw water
     94      32    1  -1.112800  2.827420e+01  1.925944e+01  3.063265e+01  # Ow water
     95      32    2   0.556400  2.859119e+01  1.996225e+01  3.119994e+01  # Hw water
     96      32    2   0.556400  2.797116e+01  1.858164e+01  3.123678e+01  # Hw water
     97      33    1  -1.112800  1.062586e+01  9.788685e+00  9.800119e+00  # Ow water
     98      33    2   0.556400  1.085504e+01  1.048632e+01  1.041414e+01  # Hw water
     99      33    2   0.556400  1.041507e+01  9.038903e+00  1.035656e+01  # Hw water
    100      34    1  -1.112800  1.946570e+01  3.123961e+01  2.057128e+01  # Ow water
    101      34    2   0.556400  2.039178e+01  3.118343e+01  2.033578e+01  # Hw water
    102      34    2   0.556400  1.900421e+01  3.123656e+01  1.973268e+01  # Hw water
    103      35    1  -1.112800  8.534205e+00  1.973543e+01  6.749064e+00  # Ow water
    104      35    2   0.556400  8.299010e+00  2.023433e+01  5.966754e+00  # Hw water
    105      35    2   0.556400  7.734115e+00  1.972143e+01  7.274314e+00  # Hw water
    106      36    1  -1.112800  1.646906e+00  5.855004e+00  2.566019e+01  # Ow water
    107      36    2   0.556400  1.490949e+00  5.121831e+00  2.506491e+01  # Hw water
    108      36    2   0.556400  2.560634e+00  5.756625e+00  2.592787e+01  # Hw water
    109      37    1  -1.112800  1.497077e+00  2.689407e+01  1.864015e+00  # Ow water
    110      37    2   0.556400  2.270015e+00  2.731920e+01  1.492446e+00  # Hw water
    111      37    2   0.556400  1.497274e+00  2.601743e+01  1.479661e+00  # Hw water
    112      38    1  -1.112800  2.384184e+01  1.645882e+01  2.039346e+01  # Ow water
    113      38    2   0.556400  2.376334e+01  1.708243e+01  2.111538e+01  # Hw water
    114      38    2   0.556400  2.293869e+01  1.622604e+01  2.017813e+01  # Hw water
    115      39    1  -1.112800  1.850368e+00  1.940929e+01  7.675177e+00  # Ow water
    116      39    2   0.556400  1.577123e+00  1.853656e+01  7.957867e+00  # Hw water
    117      39    2   0.556400  2.656685e+00  1.926011e+01  7.181388e+00  # Hw water
    118      40    1  -1.112800  2.426009e+01  7.592042e+00  2.765293e+01  # Ow water
    119      40    2   0.556400  2.463976e+01  6.798417e+00  2.727578e+01  # Hw water
    120      40    2   0.556400  2.380746e+01  7.290619e+00  2.844064e+01  # Hw water
    121      41    1  -1.112800  1.373400e+01  2.197686e+01  1.625085e+01  # Ow water
    122      41    2   0.556400  1.350073e+01  2.266371e+01  1.562631e+01  # Hw water
    123      41    2   0.556400  1.399172e+01  2.123382e+01  1.570524e+01  # Hw water
    124      42    1  -1.112800  1.681989e+00  3.094932e+01  2.247741e+01  # Ow water
    125      42    2   0.556400  1.494486e+00  3.001075e+01  2.246435e+01  # Hw water
    126      42    2   0.556400  1.496934e+00  3.124345e+01  2.158552e+01  # Hw water
    127      43    1  -1.112800  1.385556e+01  6.503772e+00  7.851641e+00  # Ow water
    128      43    2   0.556400  1.434528e+01  6.650283e+00  8.660923e+00  # Hw water
    129      43    2   0.556400  1.309239e+01  5.993196e+00  8.122036e+00  # Hw water
    130      44    1  -1.112800  2.008022e+01  3.062942e+01  1.756010e+01  # Ow water
    131      44    2   0.556400  2.075533e+01  3.123665e+01  1.786296e+01  # Hw water
    132      44    2   0.556400  2.050672e+01  3.012095e+01  1.687033e+01  # Hw water
    133      45    1  -1.112800  3.123836e+01  2.308978e+01  1.252597e+01  # Ow water
    134      45    2   0.556400  3.122414e+01  2.399612e+01  1.283349e+01  # Hw water
    135      45    2   0.556400  3.124993e+01  2.256494e+01  1.332637e+01  # Hw water
    136      46    1  -1.112800  1.529935e+00  2.612438e+01  1.717823e+01  # Ow water
    137      46    2   0.556400  2.160357e+00  2.567519e+01  1.774129e+01  # Hw water
    138      46    2   0.556400  1.498419e+00  2.701840e+01  1.751874e+01  # Hw water
    139      47    1  -1.112800  6.640618e+00  8.996573e+00  1.351035e+01  # Ow water
    140      47    2   0.556400  6.567959e+00  9.883898e+00  1.386192e+01  # Hw water
    141      47    2   0.556400  7.306837e+00  8.576655e+00  1.405446e+01  # Hw water
    142      48    1  -1.112800  2.447531e+01  1.994454e+00  3.089759e+01  # Ow water
    143      48    2   0.556400  2.524268e+01  1.503471e+00  3.119138e+01  # Hw water
    144      48    2   0.556400  2.372946e+01  1.499555e+00  3.123673e+01  # Hw water
    145      49    1  -1.112800  2.751857e+01  2.856309e+01  2.906359e+01  # Ow water
    146      49    2   0.556400  2.722563e+01  2.765190e+01  2.905119e+01  # Hw water
    147      49    2   0.556400  2.829313e+01  2.855853e+01  2.962596e+01  # Hw water
    148      50    1  -1.112800  2.971800e+01  1.115081e+01  1.976158e+01  # Ow water
    149      50    2   0.556400  2.906377e+01  1.173421e+01  1.937706e+01  # Hw water
    150      50    2   0.556400  3.027555e+01  1.089743e+01  1.902595e+01  # Hw water
    151      51    1  -1.112800  3.118911e+01  2.030023e+01  4.866411e+00  # Ow water
    152      51    2   0.556400  3.114037e+01  2.109122e+01  4.329571e+00  # Hw water
    153      51    2   0.556400  3.123688e+01  1.958343e+01  4.233842e+00  # Hw water
    154      52    1  -1.112800  2.259820e+01  5.514880e+00  2.372826e+01  # Ow water
    155      52    2   0.556400  2.291270e+01  6.132313e+00  2.306789e+01  # Hw water
    156      52    2   0.556400  2.323469e+01  5.580079e+00  2.444020e+01  # Hw water
    157      53    1  -1.112800  1.033024e+01  1.905322e+01  2.132298e+01  # Ow water
    158      53    2   0.556400  9.409714e+00  1.886931e+01  2.151017e+01  # Hw water
    159      53    2   0.556400  1.074506e+01  1.819125e+01  2.128882e+01  # Hw water
    160      54    1  -1.112800  4.829110e+00  2.034878e+01  8.819336e+00  # Ow water
    161      54    2   0.556400  5.743746e+00  2.007660e+01  8.744571e+00  # Hw water
    162      54    2   0.556400  4.645054e+00  2.031639e+01  9.758114e+00  # Hw water
    163      55    1  -1.112800  1.292911e+01  2.487719e+01  1.460426e+01  # Ow water
    164      55    2   0.556400  1.212899e+01  2.479550e+01  1.408527e+01  # Hw water
    165      55    2   0.556400  1.363744e+01  2.483127e+01  1.396208e+01  # Hw water
    166      56    1  -1.112800  6.824398e+00  1.786165e+01  2.081546e+01  # Ow water
    167      56    2   0.556400  7.400455e+00  1.744859e+01  2.017221e+01  # Hw water
    168      56    2   0.556400  5.946164e+00  1.776739e+01  2.044661e+01  # Hw water
    169      57    1  -1.112800  1.564989e+01  1.843293e+01  2.432871e+01  # Ow water
    170      57    2   0.556400  1.629941e+01  1.902629e+01  2.470589e+01  # Hw water
    171      57    2   0.556400  1.522978e+01  1.802450e+01  2.508562e+01  # Hw water
    172      58    1  -1.112800  1.957992e+01  1.739994e+01  1.663698e+00  # Ow water
    173      58    2   0.556400  1.983625e+01  1.649452e+01  1.488322e+00  # Hw water
    174      58    2   0.556400  1.999226e+01  1.760799e+01  2.502100e+00  # Hw water
    175      59    1  -1.112800  2.730054e+01  3.082039e+01  2.239558e+00  # Ow water
    176      59    2   0.556400  2.680316e+01  3.047527e+01  1.498123e+00  # Hw water
    177      59    2   0.556400  2.764864e+01  3.004365e+01  2.677420e+00  # Hw water
    178      60    1  -1.112800  2.615666e+01  1.689122e+01  1.955471e+01  # Ow water
    179      60    2   0.556400  2.579237e+01  1.718552e+01  1.871990e+01  # Hw water
    180      60    2   0.556400  2.672328e+01  1.760962e+01  1.983588e+01  # Hw water
    181      61    1  -1.112800  1.854232e+01  2.308613e+01  1.498295e+00  # Ow water
    182      61    2   0.556400  1.775190e+01  2.275059e+01  1.921241e+00  # Hw water
    183      61    2   0.556400  1.922213e+01  2.245016e+01  1.721081e+00  # Hw water
    184      62    1  -1.112800  2.471637e+01  2.691089e+01  2.882398e+01  # Ow water
    185      62    2   0.556400  2.506052e+01  2.636190e+01  2.811943e+01  # Hw water
    186      62    2   0.556400  2.428032e+01  2.629724e+01  2.941519e+01  # Hw water
    187      63    1  -1.112800  2.412473e+01  2.176095e+01  1.795695e+01  # Ow water
    188      63    2   0.556400  2.498051e+01  2.136851e+01  1.778418e+01  # Hw water
    189      63    2   0.556400  2.369746e+01  2.179142e+01  1.710094e+01  # Hw water
    190      64    1  -1.112800  1.892672e+01  1.153798e+01  3.030751e+01  # Ow water
    191      64    2   0.556400  1.974485e+01  1.203365e+01  3.027284e+01  # Hw water
    192      64    2   0.556400  1.869771e+01  1.151753e+01  3.123669e+01  # Hw water
    193      65    1  -1.112800  3.101419e+01  1.328696e+01  1.500092e+00  # Ow water
    194      65    2   0.556400  3.123734e+01  1.358606e+01  2.381552e+00  # Hw water
    195      65    2   0.556400  3.123705e+01  1.235606e+01  1.498943e+00  # Hw water
    196      66    1  -1.112800  1.645047e+01  2.980686e+01  1.787710e+01  # Ow water
    197      66    2   0.556400  1.638796e+01  3.004132e+01  1.880303e+01  # Hw water
    198      66    2   0.556400  1.736634e+01  2.996776e+01  1.765010e+01  # Hw water
    199      67    1  -1.112800  1.499750e+00  2.542076e+01  2.013868e+01  # Ow water
    200      67    2   0.556400  1.494753e+00  2.617995e+01  2.072163e+01  # Hw water
    201      67    2   0.556400  1.489240e+00  2.466607e+01  2.072739e+01  # Hw water
    202      68    1  -1.112800  2.846552e+01  1.381969e+01  2.665079e+01  # Ow water
    203      68    2   0.556400  2.753906e+01  1.365217e+01  2.682351e+01  # Hw water
    204      68    2   0.556400  2.850945e+01  1.397536e+01  2.570736e+01  # Hw water
    205      69    1  -1.112800  1.355454e+01  2.211374e+00  2.168035e+01  # Ow water
    206      69    2   0.556400  1.421715e+01  1.528434e+00  2.178412e+01  # Hw water
    207      69    2   0.556400  1.272367e+01  1.737051e+00  2.165041e+01  # Hw water
    208      70    1  -1.112800  3.099539e+01  1.739683e+01  3.065112e+01  # Ow water
    209      70    2   0.556400  3.123769e+01  1.667978e+01  3.123709e+01  # Hw water
    210      70    2   0.556400  3.075304e+01  1.811401e+01  3.123691e+01  # Hw water
    211      71    1  -1.112800  8.304200e+00  8.721491e+00  2.288490e+01  # Ow water
    212      71    2   0.556400  7.428283e+00  8.839488e+00  2.325243e+01  # Hw water
    213      71    2   0.556400  8.627823e+00  7.916656e+00  2.328955e+01  # Hw water
    214      72    1  -1.112800  1.947312e+01  1.359863e+01  5.259827e+00  # Ow water
    215      72    2   0.556400  1.896194e+01  1.428034e+01  5.695944e+00  # Hw water
    216      72    2   0.556400  1.934218e+01  1.376111e+01  4.325650e+00  # Hw water
    217      73    1  -1.112800  2.465904e+01  1.948340e+01  2.288986e+01  # Ow water
    218      73    2   0.556400  2.401776e+01  1.880066e+01  2.308696e+01  # Hw water
    219      73    2   0.556400  2.478994e+01  1.993726e+01  2.372239e+01  # Hw water
    220      74    1  -1.112800  2.370957e+00  1.058748e+01  2.058714e+00  # Ow water
    221      74    2   0.556400  2.959883e+00  1.109197e+01  1.497561e+00  # Hw water
    222      74    2   0.556400  1.495594e+00  1.078071e+01  1.723107e+00  # Hw water
    223      75    1  -1.112800  2.414492e+01  2.170796e+01  2.709784e+01  # Ow water
    224      75    2   0.556400  2.410429e+01  2.129722e+01  2.623421e+01  # Hw water
    225      75    2   0.556400  2.508079e+01  2.180669e+01  2.727285e+01  # Hw water
    226      76    1  -1.112800  1.877207e+01  2.015621e+01  1.394625e+01  # Ow water
    227      76    2   0.556400  1.862525e+01  1.975634e+01  1.480344e+01  # Hw water
    228      76    2   0.556400  1.962438e+01  2.058482e+01  1.402419e+01  # Hw water
    229      77    1  -1.112800  2.067371e+01  2.550554e+01  1.217076e+01  # Ow water
    230      77    2   0.556400  1.978274e+01  2.516631e+01  1.225634e+01  # Hw water
    231      77    2   0.556400  2.097014e+01  2.563155e+01  1.307214e+01  # Hw water
    232      78    1  -1.112800  1.649329e+01  2.046222e+01  1.268877e+01  # Ow water
    233      78    2   0.556400  1.576366e+01  2.005523e+01  1.222163e+01  # Hw water
    234      78    2   0.556400  1.671568e+01  2.123088e+01  1.216348e+01  # Hw water
    235      79    1  -1.112800  2.511729e+01  2.891393e+01  2.482835e+00  # Ow water
    236      79    2   0.556400  2.472144e+01  2.825052e+01  1.917670e+00  # Hw water
    237      79    2   0.556400  2.459073e+01  2.889364e+01  3.281929e+00  # Hw water
    238      80    1  -1.112800  1.596663e+01  1.557292e+00  1.386382e+01  # Ow water
    239      80    2   0.556400  1.607215e+01  1.633525e+00  1.481212e+01  # Hw water
    240      80    2   0.556400  1.502051e+01  1.497172e+00  1.373168e+01  # Hw water
    241      81    1  -1.112800  2.597488e+01  5.052687e+00  8.257459e+00  # Ow water
    242      81    2   0.556400  2.648160e+01  5.322947e+00  7.491677e+00  # Hw water
    243      81    2   0.556400  2.640069e+01  4.248906e+00  8.555530e+00  # Hw water
    244      82    1  -1.112800  1.652126e+00  2.236488e+01  2.444448e+01  # Ow water
    245      82    2   0.556400  2.229735e+00  2.254875e+01  2.518528e+01  # Hw water
    246      82    2   0.556400  1.577887e+00  2.141069e+01  2.442911e+01  # Hw water
    247      83    1  -1.112800  2.643519e+01  2.503809e+01  1.202342e+01  # Ow water
    248      83    2   0.556400  2.580710e+01  2.543724e+01  1.262543e+01  # Hw water
    249      83    2   0.556400  2.702959e+01  2.454501e+01  1.258892e+01  # Hw water
    250      84    1  -1.112800  1.497099e+00  1.847371e+01  5.110933e+00  # Ow water
    251      84    2   0.556400  1.492852e+00  1.764032e+01  5.581751e+00  # Hw water
    252      84    2   0.556400  1.498882e+00  1.822687e+01  4.186111e+00  # Hw water
    253      85    1  -1.112800  1.110921e+01  7.067603e+00  2.006500e+01  # Ow water
    254      85    2   0.556400  1.135355e+01  7.821939e+00  2.060119e+01  # Hw water
    255      85    2   0.556400  1.149216e+01  6.316667e+00  2.051851e+01  # Hw water
    256      86    1  -1.112800  1.776205e+00  3.881277e+00  3.555922e+00  # Ow water
    257      86    2   0.556400  1.489235e+00  4.531855e+00  2.915121e+00  # Hw water
    258      86    2   0.556400  1.533104e+00  4.255173e+00  4.402876e+00  # Hw water
    259      87    1  -1.112800  1.422942e+01  2.554422e+01  6.452599e+00  # Ow water
    260      87    2   0.556400  1.419702e+01  2.628949e+01  7.052394e+00  # Hw water
    261      87    2   0.556400  1.464605e+01  2.484675e+01  6.958740e+00  # Hw water
    262      88    1  -1.112800  2.380658e+01  2.623125e+01  2.221281e+01  # Ow water
    263      88    2   0.556400  2.300393e+01  2.670407e+01  2.199275e+01  # Hw water
    264      88    2   0.556400  2.375301e+01  2.541961e+01  2.170823e+01  # Hw water
    265      89    1  -1.112800  1.663537e+01  7.825804e+00  2.276561e+01  # Ow water
    266      89    2   0.556400  1.721353e+01  7.737957e+00  2.352340e+01  # Hw water
    267      89    2   0.556400  1.617636e+01  6.987335e+00  2.271547e+01  # Hw water
    268      90    1  -1.112800  1.515549e+00  6.506767e+00  8.642086e+00  # Ow water
    269      90    2   0.556400  1.494750e+00  7.370206e+00  8.229449e+00  # Hw water
    270      90    2   0.556400  1.522817e+00  6.689875e+00  9.581579e+00  # Hw water
    271      91    1  -1.112800  1.042693e+01  1.911407e+01  2.430717e+01  # Ow water
    272      91    2   0.556400  1.052218e+01  1.983831e+01  2.368859e+01  # Hw water
    273      91    2   0.556400  1.036831e+01  1.833376e+01  2.375590e+01  # Hw water
    274      92    1  -1.112800  3.041440e+01  1.673477e+01  1.593272e+01  # Ow water
    275      92    2   0.556400  3.123712e+01  1.715179e+01  1.567686e+01  # Hw water
    276      92    2   0.556400  3.036043e+01  1.687078e+01  1.687867e+01  # Hw water
    277      93    1  -1.112800  4.694808e+00  2.422382e+00  2.560192e+01  # Ow water
    278      93    2   0.556400  4.295627e+00  3.238419e+00  2.530031e+01  # Hw water
    279      93    2   0.556400  3.957514e+00  1.823060e+00  2.571784e+01  # Hw water
    280      94    1  -1.112800  3.123739e+01  2.470350e+01  2.166387e+01  # Ow water
    281      94    2   0.556400  3.032742e+01  2.451307e+01  2.143602e+01  # Hw water
    282      94    2   0.556400  3.119503e+01  2.552337e+01  2.215605e+01  # Hw water
    283      95    1  -1.112800  1.577984e+01  1.496647e+00  5.998398e+00  # Ow water
    284      95    2   0.556400  1.560690e+01  1.694358e+00  6.918851e+00  # Hw water
    285      95    2   0.556400  1.492665e+01  1.575263e+00  5.571646e+00  # Hw water
    286      96    1  -1.112800  1.516830e+01  1.995680e+01  2.046099e+01  # Ow water
    287      96    2   0.556400  1.516715e+01  1.990888e+01  2.141699e+01  # Hw water
    288      96    2   0.556400  1.425039e+01  2.009338e+01  2.022645e+01  # Hw water
    289      97    1  -1.112800  1.966057e+01  1.525215e+00  2.656068e+01  # Ow water
    290      97    2   0.556400  2.061576e+01  1.499399e+00  2.650436e+01  # Hw water
    291      97    2   0.556400  1.947470e+01  1.498265e+00  2.749928e+01  # Hw water
    292      98    1  -1.112800  2.284757e+01  2.865460e+01  1.201874e+01  # Ow water
    293      98    2   0.556400  2.276629e+01  2.787016e+01  1.256121e+01  # Hw water
    294      98    2   0.556400  2.233733e+01  2.931979e+01  1.248071e+01  # Hw water
    295      99    1  -1.112800  2.635318e+01  9.330609e+00  1.645132e+01  # Ow water
    296      99    2   0.556400  2.646989e+01  9.970696e+00  1.715338e+01  # Hw water
    297      99    2   0.556400  2.540745e+01  9.303401e+00  1.630613e+01  # Hw water
    298     100    1  -1.112800  2.000363e+01  6.361607e+00  2.296543e+01  # Ow water
    299     100    2   0.556400  2.053820e+01  5.892058e+00  2.232512e+01  # Hw water
    300     100    2   0.556400  2.051687e+01  7.140059e+00  2.318182e+01  # Hw water
    301     101    1  -1.112800  2.079081e+01  2.896328e+01  1.045149e+01  # Ow water
    302     101    2   0.556400  2.057772e+01  2.824949e+01  1.105260e+01  # Hw water
    303     101    2   0.556400  2.147707e+01  2.860576e+01  9.888071e+00  # Hw water
    304     102    1  -1.112800  1.481180e+01  1.613698e+01  2.350079e+01  # Ow water
    305     102    2   0.556400  1.557151e+01  1.634457e+01  2.295675e+01  # Hw water
    306     102    2   0.556400  1.417371e+01  1.576692e+01  2.289078e+01  # Hw water
    307     103    1  -1.112800  5.858215e+00  3.112188e+01  2.799425e+01  # Ow water
    308     103    2   0.556400  6.155477e+00  3.024004e+01  2.821831e+01  # Hw water
    309     103    2   0.556400  6.119639e+00  3.123842e+01  2.708084e+01  # Hw water
    310     104    1  -1.112800  2.607393e+00  6.053883e+00  5.859963e+00  # Ow water
    311     104    2   0.556400  1.677958e+00  6.099612e+00  6.084213e+00  # Hw water
    312     104    2   0.556400  3.061632e+00  6.171236e+00  6.694303e+00  # Hw water
    313     105    1  -1.112800  1.583329e+01  1.640538e+00  2.987923e+00  # Ow water
    314     105    2   0.556400  1.601499e+01  1.495707e+00  2.059357e+00  # Hw water
    315     105    2   0.556400  1.489066e+01  1.497657e+00  3.073143e+00  # Hw water
    316     106    1  -1.112800  9.152617e+00  2.867323e+01  3.065182e+01  # Ow water
    317     106    2   0.556400  8.760174e+00  2.802282e+01  3.123422e+01  # Hw water
    318     106    2   0.556400  9.461171e+00  2.936464e+01  3.123746e+01  # Hw water
    319     107    1  -1.112800  2.609923e+01  3.123871e+01  3.019211e+01  # Ow water
    320     107    2   0.556400  2.596742e+01  3.039822e+01  2.975345e+01  # Hw water
    321     107    2   0.556400  2.632104e+01  3.100661e+01  3.109386e+01  # Hw water
    322     108    1  -1.112800  2.764220e+01  2.640914e+00  2.495888e+01  # Ow water
    323     108    2   0.556400  2.728871e+01  3.173420e+00  2.567142e+01  # Hw water
    324     108    2   0.556400  2.728040e+01  1.767639e+00  2.510964e+01  # Hw water
    325     109    1  -1.112800  2.848500e+01  1.079252e+01  2.346165e+01  # Ow water
    326     109    2   0.556400  2.755069e+01  1.094199e+01  2.331684e+01  # Hw water
    327     109    2   0.556400  2.891113e+01  1.117730e+01  2.269576e+01  # Hw water
    328     110    1  -1.112800  1.153199e+01  1.543420e+01  1.144647e+01  # Ow water
    329     110    2   0.556400  1.082137e+01  1.479453e+01  1.140091e+01  # Hw water
    330     110    2   0.556400  1.112757e+01  1.626126e+01  1.118447e+01  # Hw water
    331     111    1  -1.112800  4.299774e+00  9.381269e+00  2.271847e+01  # Ow water
    332     111    2   0.556400  4.302119e+00  8.548813e+00  2.319095e+01  # Hw water
    333     111    2   0.556400  4.791502e+00  9.978528e+00  2.328213e+01  # Hw water
    334     112    1  -1.112800  2.583752e+01  2.028780e+01  2.048371e+01  # Ow water
    335     112    2   0.556400  2.545378e+01  2.113223e+01  2.024725e+01  # Hw water
    336     112    2   0.556400  2.644700e+01  2.009335e+01  1.977170e+01  # Hw water
    337     113    1  -1.112800  2.499587e+01  8.401639e+00  1.907533e+01  # Ow water
    338     113    2   0.556400  2.578335e+01  7.954396e+00  1.938531e+01  # Hw water
    339     113    2   0.556400  2.461370e+01  8.788367e+00  1.986312e+01  # Hw water
    340     114    1  -1.112800  2.358259e+01  3.123814e+01  2.121714e+01  # Ow water
    341     114    2   0.556400  2.270438e+01  3.104936e+01  2.154781e+01  # Hw water
    342     114    2   0.556400  2.416785e+01  3.097916e+01  2.192892e+01  # Hw water
    343     115    1  -1.112800  5.354813e+00  2.587657e+01  1.785365e+01  # Ow water
    344     115    2   0.556400  5.822339e+00  2.597344e+01  1.702403e+01  # Hw water
    345     115    2   0.556400  4.742181e+00  2.515706e+01  1.770129e+01  # Hw water
    346     116    1  -1.112800  7.250047e+00  2.672586e+01  2.594678e+01  # Ow water