created by fftool

3162 atoms
2108 bonds
1108 angles
6 atom types
3 bond types
2 angle types
0.000000 31.689281 xlo xhi
0.000000 31.689281 ylo yhi
0.000000 31.689281 zlo zhi

Atoms

      1       1    1  -1.112800  2.098246e+01  3.018955e+01  6.114210e+00  # Ow water
      2       1    2   0.556400  2.011332e+01  2.979438e+01  6.045897e+00  # Hw water
      3       1    2   0.556400  2.158433e+01  2.944532e+01  6.124482e+00  # Hw water
      4       2    1  -1.112800  4.188086e+00  4.849069e+00  2.037206e+00  # Ow water
      5       2    2   0.556400  4.983565e+00  4.627560e+00  1.553083e+00  # Hw water
      6       2    2   0.556400  3.474545e+00  4.525424e+00  1.487350e+00  # Hw water
      7       3    1  -1.112800  3.019938e+01  7.765697e+00  2.911309e+01  # Ow water
      8       3    2   0.556400  3.018714e+01  7.276033e+00  2.829071e+01  # Hw water
      9       3    2   0.556400  3.020842e+01  8.684588e+00  2.884516e+01  # Hw water
     10       4    1  -1.112800  1.492119e+01  2.038439e+00  7.360683e+00  # Ow water
     11       4    2   0.556400  1.570848e+01  1.497480e+00  7.421963e+00  # Hw water
     12       4    2   0.556400  1.519150e+01  2.798048e+00  6.844781e+00  # Hw water
     13       5    1  -1.112800  9.599999e+00  7.795175e+00  1.566626e+00  # Ow water
     14       5    2   0.556400  1.051026e+01  8.083632e+00  1.499968e+00  # Hw water
     15       5    2   0.556400  9.087226e+00  8.600189e+00  1.494207e+00  # Hw water
     16       6    1  -1.112800  3.370808e+00  8.637094e+00  1.532775e+01  # Ow water
     17       6    2   0.556400  3.995635e+00  8.204865e+00  1.590998e+01  # Hw water
     18       6    2   0.556400  3.462982e+00  8.177560e+00  1.449314e+01  # Hw water
     19       7    1  -1.112800  1.876583e+01  1.497274e+00  1.765670e+01  # Ow water
     20       7    2   0.556400  1.833423e+01  2.300768e+00  1.736628e+01  # Hw water
     21       7    2   0.556400  1.960798e+01  1.499293e+00  1.720170e+01  # Hw water
     22       8    1  -1.112800  3.345592e+00  1.031639e+01  2.154677e+01  # Ow water
     23       8    2   0.556400  2.836330e+00  9.778786e+00  2.094026e+01  # Hw water
     24       8    2   0.556400  3.931928e+00  9.697414e+00  2.198186e+01  # Hw water
     25       9    1  -1.112800  2.687699e+01  3.011912e+01  1.760285e+01  # Ow water
     26       9    2   0.556400  2.773935e+01  3.019049e+01  1.801207e+01  # Hw water
     27       9    2   0.556400  2.625931e+01  3.019181e+01  1.833046e+01  # Hw water
     28      10    1  -1.112800  4.116733e+00  4.374793e+00  1.161375e+01  # Ow water
     29      10    2   0.556400  4.978050e+00  4.353281e+00  1.119674e+01  # Hw water
     30      10    2   0.556400  4.274782e+00  4.068792e+00  1.250684e+01  # Hw water
     31      11    1  -1.112800  4.152008e+00  2.695860e+01  1.927417e+01  # Ow water
     32      11    2   0.556400  3.440771e+00  2.631905e+01  1.931090e+01  # Hw water
     33      11    2   0.556400  3.796253e+00  2.768393e+01  1.876078e+01  # Hw water
     34      12    1  -1.112800  1.664721e+01  1.309035e+01  3.019541e+01  # Ow water
     35      12    2   0.556400  1.687282e+01  1.373627e+01  2.952599e+01  # Hw water
     36      12    2   0.556400  1.643572e+01  1.229762e+01  2.970238e+01  # Hw water
     37      13    1  -1.112800  1.713228e+01  2.295886e+00  2.761481e+01  # Ow water
     38      13    2   0.556400  1.768746e+01  2.984769e+00  2.798010e+01  # Hw water
     39      13    2   0.556400  1.630154e+01  2.384175e+00  2.808204e+01  # Hw water
     40      14    1  -1.112800  1.253916e+01  2.748880e+01  5.615404e+00  # Ow water
     41      14    2   0.556400  1.244175e+01  2.810402e+01  6.342208e+00  # Hw water
     42      14    2   0.556400  1.270742e+01  2.804266e+01  4.853065e+00  # Hw water
     43      15    1  -1.112800  2.023677e+01  2.161735e+01  1.542538e+01  # Ow water
     44      15    2   0.556400  1.955049e+01  2.173048e+01  1.476778e+01  # Hw water
     45      15    2   0.556400  2.105464e+01  2.168171e+01  1.493224e+01  # Hw water
     46      16    1  -1.112800  2.132714e+01  7.273379e+00  1.251275e+01  # Ow water
     47      16    2   0.556400  2.152930e+01  6.359591e+00  1.231188e+01  # Hw water
     48      16    2   0.556400  2.204800e+01  7.561107e+00  1.307293e+01  # Hw water
     49      17    1  -1.112800  2.662645e+01  3.018930e+01  1.216478e+01  # Ow water
     50      17    2   0.556400  2.678610e+01  2.929127e+01  1.245509e+01  # Hw water
     51      17    2   0.556400  2.673968e+01  3.015813e+01  1.121481e+01  # Hw water
     52      18    1  -1.112800  2.434728e+01  3.846588e+00  8.827557e+00  # Ow water
     53      18    2   0.556400  2.420420e+01  4.014921e+00  9.758910e+00  # Hw water
     54      18    2   0.556400  2.362949e+01  4.302626e+00  8.388208e+00  # Hw water
     55      19    1  -1.112800  2.391552e+01  9.718663e+00  2.149284e+01  # Ow water
     56      19    2   0.556400  2.434230e+01  8.927626e+00  2.182200e+01  # Hw water
     57      19    2   0.556400  2.311018e+01  9.787901e+00  2.200554e+01  # Hw water
     58      20    1  -1.112800  1.750921e+01  8.176505e+00  2.066416e+01  # Ow water
     59      20    2   0.556400  1.810334e+01  8.374180e+00  1.994017e+01  # Hw water
     60      20    2   0.556400  1.796509e+01  8.496053e+00  2.144280e+01  # Hw water
     61      21    1  -1.112800  1.194768e+01  2.320646e+01  2.452641e+01  # Ow water
     62      21    2   0.556400  1.250012e+01  2.243002e+01  2.461685e+01  # Hw water
     63      21    2   0.556400  1.131407e+01  2.297250e+01  2.384816e+01  # Hw water
     64      22    1  -1.112800  1.847329e+01  2.791508e+01  6.215249e+00  # Ow water
     65      22    2   0.556400  1.830304e+01  2.838143e+01  7.033636e+00  # Hw water
     66      22    2   0.556400  1.929762e+01  2.745350e+01  6.369069e+00  # Hw water
     67      23    1  -1.112800  2.970191e+01  2.694861e+01  1.418059e+01  # Ow water
     68      23    2   0.556400  3.018965e+01  2.612511e+01  1.419459e+01  # Hw water
     69      23    2   0.556400  3.018946e+01  2.752631e+01  1.476777e+01  # Hw water
     70      24    1  -1.112800  2.923904e+01  9.923896e+00  1.145723e+01  # Ow water
     71      24    2   0.556400  3.019180e+01  9.991840e+00  1.139514e+01  # Hw water
     72      24    2   0.556400  2.903130e+01  9.083252e+00  1.104932e+01  # Hw water
     73      25    1  -1.112800  1.553696e+01  1.499251e+00  1.556478e+00  # Ow water
     74      25    2   0.556400  1.496466e+01  2.239469e+00  1.758411e+00  # Hw water
     75      25    2   0.556400  1.618723e+01  1.500044e+00  2.258893e+00  # Hw water
     76      26    1  -1.112800  1.386704e+01  6.189414e+00  9.715998e+00  # Ow water
     77      26    2   0.556400  1.441558e+01  5.838724e+00  1.041767e+01  # Hw water
     78      26    2   0.556400  1.298753e+01  6.221795e+00  1.009236e+01  # Hw water
     79      27    1  -1.112800  2.249885e+01  1.494842e+00  2.958761e+01  # Ow water
     80      27    2   0.556400  2.328159e+01  1.498770e+00  3.013854e+01  # Hw water
     81      27    2   0.556400  2.177809e+01  1.667127e+00  3.019346e+01  # Hw water
     82      28    1  -1.112800  7.873839e+00  1.433802e+01  1.361500e+01  # Ow water
     83      28    2   0.556400  7.952925e+00  1.387137e+01  1.444700e+01  # Hw water
     84      28    2   0.556400  7.640528e+00  1.523265e+01  1.386285e+01  # Hw water
     85      29    1  -1.112800  1.989788e+01  7.215375e+00  2.747755e+01  # Ow water
     86      29    2   0.556400  2.003615e+01  6.280062e+00  2.762689e+01  # Hw water
     87      29    2   0.556400  2.001598e+01  7.327846e+00  2.653435e+01  # Hw water
     88      30    1  -1.112800  1.002463e+01  2.713974e+01  7.739130e+00  # Ow water
     89      30    2   0.556400  9.890294e+00  2.807869e+01  7.610467e+00  # Hw water
     90      30    2   0.556400  1.036541e+01  2.682891e+01  6.900392e+00  # Hw water
     91      31    1  -1.112800  5.645114e+00  2.119016e+01  1.991874e+01  # Ow water
     92      31    2   0.556400  6.570580e+00  2.107744e+01  1.970187e+01  # Hw water
     93      31    2   0.556400  5.641209e+00  2.183495e+01  2.062617e+01  # Hw water
     94      32    1  -1.112800  2.379007e+01  8.659911e+00  2.462601e+01  # Ow water
     95      32    2   0.556400  2.324880e+01  8.235850e+00  2.396011e+01  # Hw water
     96      32    2   0.556400  2.377062e+01  8.058056e+00  2.537007e+01  # Hw water
     97      33    1  -1.112800  1.714207e+01  9.334879e+00  2.945228e+01  # Ow water
     98      33    2   0.556400  1.711900e+01  9.943007e+00  3.019112e+01  # Hw water
     99      33    2   0.556400  1.802325e+01  9.429846e+00  2.909071e+01  # Hw water
    100      34    1  -1.112800  1.940488e+01  3.683448e+00  1.915264e+01  # Ow water
    101      34    2   0.556400  2.016171e+01  3.498691e+00  1.859648e+01  # Hw water
    102      34    2   0.556400  1.967789e+01  4.426882e+00  1.969023e+01  # Hw water
    103      35    1  -1.112800  2.579832e+01  2.582808e+01  3.014806e+01  # Ow water
    104      35    2   0.556400  2.631603e+01  2.663235e+01  3.018500e+01  # Hw water
    105      35    2   0.556400  2.641006e+01  2.516320e+01  2.983194e+01  # Hw water
    106      36    1  -1.112800  1.595315e+00  1.558306e+01  1.594562e+01  # Ow water
    107      36    2   0.556400  1.498995e+00  1.650691e+01  1.571441e+01  # Hw water
    108      36    2   0.556400  1.509864e+00  1.511730e+01  1.511376e+01  # Hw water
    109      37    1  -1.112800  1.226495e+01  8.078917e+00  1.474575e+01  # Ow water
    110      37    2   0.556400  1.225538e+01  8.092015e+00  1.378869e+01  # Hw water
    111      37    2   0.556400  1.155855e+01  8.672295e+00  1.500096e+01  # Hw water
    112      38    1  -1.112800  5.387794e+00  1.967585e+01  7.898519e+00  # Ow water
    113      38    2   0.556400  4.863515e+00  1.902855e+01  8.370074e+00  # Hw water
    114      38    2   0.556400  5.865971e+00  2.014268e+01  8.583826e+00  # Hw water
    115      39    1  -1.112800  1.414202e+01  2.500394e+01  1.321801e+01  # Ow water
    116      39    2   0.556400  1.327983e+01  2.468402e+01  1.348354e+01  # Hw water
    117      39    2   0.556400  1.474353e+01  2.429838e+01  1.345593e+01  # Hw water
    118      40    1  -1.112800  3.851230e+00  1.168555e+01  6.368484e+00  # Ow water
    119      40    2   0.556400  4.390080e+00  1.233166e+01  5.911967e+00  # Hw water
    120      40    2   0.556400  3.568482e+00  1.213037e+01  7.167495e+00  # Hw water
    121      41    1  -1.112800  1.591004e+01  1.126750e+01  1.413290e+01  # Ow water
    122      41    2   0.556400  1.547666e+01  1.211426e+01  1.402607e+01  # Hw water
    123      41    2   0.556400  1.544864e+01  1.068406e+01  1.353045e+01  # Hw water
    124      42    1  -1.112800  1.701433e+00  8.145724e+00  2.852747e+01  # Ow water
    125      42    2   0.556400  1.499431e+00  9.061681e+00  2.871838e+01  # Hw water
    126      42    2   0.556400  1.495017e+00  8.043042e+00  2.759845e+01  # Hw water
    127      43    1  -1.112800  3.019002e+01  1.618670e+01  2.539017e+01  # Ow water
    128      43    2   0.556400  3.018454e+01  1.680524e+01  2.612066e+01  # Hw water
    129      43    2   0.556400  3.018991e+01  1.532445e+01  2.580581e+01  # Hw water
    130      44    1  -1.112800  1.336015e+01  2.235785e+01  1.881761e+01  # Ow water
    131      44    2   0.556400  1.260051e+01  2.190667e+01  1.918587e+01  # Hw water
    132      44    2   0.556400  1.385368e+01  2.265880e+01  1.958055e+01  # Hw water
    133      45    1  -1.112800  1.052604e+01  1.635144e+01  1.779398e+01  # Ow water
    134      45    2   0.556400  1.035242e+01  1.607060e+01  1.689553e+01  # Hw water
    135      45    2   0.556400  1.064588e+01  1.729897e+01  1.773032e+01  # Hw water
    136      46    1  -1.112800  8.767753e+00  6.938036e+00  1.130767e+01  # Ow water
    137      46    2   0.556400  8.431712e+00  7.559843e+00  1.066218e+01  # Hw water
    138      46    2   0.556400  8.094012e+00  6.909706e+00  1.198701e+01  # Hw water
    139      47    1  -1.112800  1.961049e+01  2.401228e+01  5.005989e+00  # Ow water
    140      47    2   0.556400  1.866664e+01  2.385562e+01  5.034811e+00  # Hw water
    141      47    2   0.556400  1.972893e+01  2.463267e+01  4.286743e+00  # Hw water
    142      48    1  -1.112800  1.576454e+00  2.268197e+01  2.422978e+01  # Ow water
    143      48    2   0.556400  1.730618e+00  2.176600e+01  2.399857e+01  # Hw water
    144      48    2   0.556400  1.505797e+00  2.313320e+01  2.338857e+01  # Hw water
    145      49    1  -1.112800  1.088729e+01  5.065873e+00  6.841784e+00  # Ow water
    146      49    2   0.556400  1.000814e+01  5.124291e+00  6.467758e+00  # Hw water
    147      49    2   0.556400  1.098727e+01  4.143400e+00  7.076899e+00  # Hw water
    148      50    1  -1.112800  6.769713e+00  2.974031e+01  6.140648e+00  # Ow water
    149      50    2   0.556400  6.736063e+00  3.019813e+01  5.300711e+00  # Hw water
    150      50    2   0.556400  7.581744e+00  3.004340e+01  6.546815e+00  # Hw water
    151      51    1  -1.112800  1.557651e+00  6.394968e+00  2.456548e+01  # Ow water
    152      51    2   0.556400  1.498944e+00  5.500539e+00  2.490130e+01  # Hw water
    153      51    2   0.556400  1.497251e+00  6.948177e+00  2.534428e+01  # Hw water
    154      52    1  -1.112800  5.655965e+00  3.013262e+01  2.353920e+01  # Ow water
    155      52    2   0.556400  5.499437e+00  3.019031e+01  2.259665e+01  # Hw water
    156      52    2   0.556400  6.607246e+00  3.019027e+01  2.362848e+01  # Hw water
    157      53    1  -1.112800  1.891043e+01  1.298151e+01  1.746614e+01  # Ow water
    158      53    2   0.556400  1.892620e+01  1.371395e+01  1.685010e+01  # Hw water
    159      53    2   0.556400  1.890870e+01  1.220140e+01  1.691148e+01  # Hw water
    160      54    1  -1.112800  2.491090e+01  8.992655e+00  3.544932e+00  # Ow water
    161      54    2   0.556400  2.471320e+01  9.923647e+00  3.646895e+00  # Hw water
    162      54    2   0.556400  2.586663e+01  8.952681e+00  3.510082e+00  # Hw water
    163      55    1  -1.112800  2.606247e+01  1.560560e+01  1.361255e+01  # Ow water
    164      55    2   0.556400  2.565211e+01  1.592630e+01  1.280944e+01  # Hw water
    165      55    2   0.556400  2.694650e+01  1.597212e+01  1.359324e+01  # Hw water
    166      56    1  -1.112800  9.750232e+00  2.262458e+00  9.456294e+00  # Ow water
    167      56    2   0.556400  1.028192e+01  1.497732e+00  9.235536e+00  # Hw water
    168      56    2   0.556400  9.633387e+00  2.721696e+00  8.624623e+00  # Hw water
    169      57    1  -1.112800  1.467881e+01  2.742943e+01  1.142636e+01  # Ow water
    170      57    2   0.556400  1.461707e+01  2.743398e+01  1.238156e+01  # Hw water
    171      57    2   0.556400  1.533022e+01  2.675578e+01  1.123118e+01  # Hw water
    172      58    1  -1.112800  1.225718e+01  2.682495e+01  2.359552e+01  # Ow water
    173      58    2   0.556400  1.239364e+01  2.623328e+01  2.433548e+01  # Hw water
    174      58    2   0.556400  1.130608e+01  2.687338e+01  2.349919e+01  # Hw water
    175      59    1  -1.112800  5.712489e+00  2.658269e+01  1.816696e+00  # Ow water
    176      59    2   0.556400  5.862622e+00  2.747077e+01  1.492661e+00  # Hw water
    177      59    2   0.556400  4.818126e+00  2.637617e+01  1.545235e+00  # Hw water
    178      60    1  -1.112800  2.854875e+00  2.991069e+01  2.271870e+01  # Ow water
    179      60    2   0.556400  1.941550e+00  3.018992e+01  2.265471e+01  # Hw water
    180      60    2   0.556400  3.130481e+00  3.018957e+01  2.359191e+01  # Hw water
    181      61    1  -1.112800  1.073614e+01  1.044056e+01  2.377967e+01  # Ow water
    182      61    2   0.556400  1.107953e+01  1.106125e+01  2.442237e+01  # Hw water
    183      61    2   0.556400  1.021532e+01  9.824778e+00  2.429522e+01  # Hw water
    184      62    1  -1.112800  1.699764e+01  2.845177e+01  9.164583e+00  # Ow water
    185      62    2   0.556400  1.734952e+01  2.756210e+01  9.194464e+00  # Hw water
    186      62    2   0.556400  1.654850e+01  2.856049e+01  1.000285e+01  # Hw water
    187      63    1  -1.112800  1.225620e+01  1.497927e+01  9.721111e+00  # Ow water
    188      63    2   0.556400  1.299164e+01  1.441844e+01  9.967738e+00  # Hw water
    189      63    2   0.556400  1.176567e+01  1.446401e+01  9.080707e+00  # Hw water
    190      64    1  -1.112800  2.043283e+01  2.500606e+01  1.853319e+01  # Ow water
    191      64    2   0.556400  2.073366e+01  2.455393e+01  1.932143e+01  # Hw water
    192      64    2   0.556400  1.999877e+01  2.579429e+01  1.885954e+01  # Hw water
    193      65    1  -1.112800  1.969582e+00  2.759077e+01  2.754001e+01  # Ow water
    194      65    2   0.556400  1.889314e+00  2.733765e+01  2.662039e+01  # Hw water
    195      65    2   0.556400  2.862471e+00  2.734306e+01  2.778005e+01  # Hw water
    196      66    1  -1.112800  9.933057e+00  1.813287e+01  2.446972e+01  # Ow water
    197      66    2   0.556400  8.986121e+00  1.799899e+01  2.442954e+01  # Hw water
    198      66    2   0.556400  1.030285e+01  1.725229e+01  2.440605e+01  # Hw water
    199      67    1  -1.112800  4.219863e+00  2.441227e+00  2.707976e+00  # Ow water
    200      67    2   0.556400  4.694531e+00  2.840847e+00  3.436826e+00  # Hw water
    201      67    2   0.556400  4.399899e+00  1.504617e+00  2.789080e+00  # Hw water
    202      68    1  -1.112800  1.357287e+01  1.149093e+01  2.988642e+01  # Ow water
    203      68    2   0.556400  1.274288e+01  1.124964e+01  2.947518e+01  # Hw water
    204      68    2   0.556400  1.424221e+01  1.117554e+01  2.927918e+01  # Hw water
    205      69    1  -1.112800  2.893672e+00  3.011047e+01  1.522577e+01  # Ow water
    206      69    2   0.556400  3.653523e+00  2.996617e+01  1.466183e+01  # Hw water
    207      69    2   0.556400  2.615339e+00  2.923150e+01  1.548300e+01  # Hw water
    208      70    1  -1.112800  1.125598e+01  3.018945e+01  2.304573e+01  # Ow water
    209      70    2   0.556400  1.197295e+01  3.018982e+01  2.367991e+01  # Hw water
    210      70    2   0.556400  1.115057e+01  2.926951e+01  2.280322e+01  # Hw water
    211      71    1  -1.112800  2.400188e+01  6.067832e+00  1.253644e+01  # Ow water
    212      71    2   0.556400  2.487915e+01  6.322349e+00  1.282254e+01  # Hw water
    213      71    2   0.556400  2.406506e+01  6.019747e+00  1.158254e+01  # Hw water
    214      72    1  -1.112800  2.905449e+01  2.122474e+01  1.756096e+00  # Ow water
    215      72    2   0.556400  2.996395e+01  2.144272e+01  1.552146e+00  # Hw water
    216      72    2   0.556400  2.856805e+01  2.202836e+01  1.572223e+00  # Hw water
    217      73    1  -1.112800  1.422881e+01  1.517046e+00  3.000685e+01  # Ow water
    218      73    2   0.556400  1.417372e+01  1.499525e+00  2.905140e+01  # Hw water
    219      73    2   0.556400  1.516491e+01  1.592486e+00  3.019192e+01  # Hw water
    220      74    1  -1.112800  2.059432e+01  1.011035e+01  5.966394e+00  # Ow water
    221      74    2   0.556400  2.152530e+01  1.000920e+01  6.164524e+00  # Hw water
    222      74    2   0.556400  2.021319e+01  9.254057e+00  6.160641e+00  # Hw water
    223      75    1  -1.112800  4.580674e+00  2.693698e+01  2.965699e+01  # Ow water
    224      75    2   0.556400  3.890806e+00  2.635930e+01  2.998349e+01  # Hw water
    225      75    2   0.556400  4.503464e+00  2.772818e+01  3.019016e+01  # Hw water
    226      76    1  -1.112800  2.548480e+01  2.053228e+01  1.763465e+00  # Ow water
    227      76    2   0.556400  2.526478e+01  1.963894e+01  1.499355e+00  # Hw water
    228      76    2   0.556400  2.639264e+01  2.064867e+01  1.483274e+00  # Hw water
    229      77    1  -1.112800  1.940813e+01  2.822810e+01  2.303375e+01  # Ow water
    230      77    2   0.556400  1.990400e+01  2.770044e+01  2.240772e+01  # Hw water
    231      77    2   0.556400  1.964695e+01  2.787237e+01  2.388969e+01  # Hw water
    232      78    1  -1.112800  3.019298e+01  2.452365e+01  6.663782e+00  # Ow water
    233      78    2   0.556400  2.977001e+01  2.520135e+01  7.191082e+00  # Hw water
    234      78    2   0.556400  3.004711e+01  2.371353e+01  7.152312e+00  # Hw water
    235      79    1  -1.112800  6.982168e+00  2.805614e+01  2.009662e+01  # Ow water
    236      79    2   0.556400  6.473245e+00  2.788533e+01  1.930413e+01  # Hw water
    237      79    2   0.556400  7.806501e+00  2.758990e+01  1.995761e+01  # Hw water
    238      80    1  -1.112800  8.992232e+00  4.209827e+00  1.551424e+01  # Ow water
    239      80    2   0.556400  8.090766e+00  4.388415e+00  1.578199e+01  # Hw water
    240      80    2   0.556400  9.011653e+00  4.421016e+00  1.458083e+01  # Hw water
    241      81    1  -1.112800  2.616791e+01  1.224491e+01  2.634694e+01  # Ow water
    242      81    2   0.556400  2.550404e+01  1.241463e+01  2.701529e+01  # Hw water
    243      81    2   0.556400  2.693826e+01  1.196274e+01  2.684007e+01  # Hw water
    244      82    1  -1.112800  1.302645e+01  1.708109e+01  8.608112e+00  # Ow water
    245      82    2   0.556400  1.282647e+01  1.653415e+01  7.848444e+00  # Hw water
    246      82    2   0.556400  1.385486e+01  1.673587e+01  8.940976e+00  # Hw water
    247      83    1  -1.112800  9.907876e+00  8.642424e+00  2.211425e+01  # Ow water
    248      83    2   0.556400  9.835841e+00  9.455598e+00  2.161446e+01  # Hw water
    249      83    2   0.556400  1.012954e+01  7.978361e+00  2.146148e+01  # Hw water
    250      84    1  -1.112800  3.947636e+00  2.253698e+00  2.105348e+01  # Ow water
    251      84    2   0.556400  3.588777e+00  2.020074e+00  2.190956e+01  # Hw water
    252      84    2   0.556400  3.753042e+00  1.499107e+00  2.049765e+01  # Hw water
    253      85    1  -1.112800  7.954864e+00  2.321435e+01  2.953301e+01  # Ow water
    254      85    2   0.556400  7.282921e+00  2.276184e+01  3.004287e+01  # Hw water
    255      85    2   0.556400  8.533588e+00  2.360223e+01  3.018940e+01  # Hw water
    256      86    1  -1.112800  2.313362e+01  2.102540e+01  2.454860e+00  # Ow water
    257      86    2   0.556400  2.299652e+01  2.080610e+01  1.533264e+00  # Hw water
    258      86    2   0.556400  2.247207e+01  2.051661e+01  2.923603e+00  # Hw water
    259      87    1  -1.112800  1.469192e+01  5.408273e+00  7.234281e+00  # Ow water
    260      87    2   0.556400  1.386792e+01  5.889313e+00  7.157785e+00  # Hw water
    261      87    2   0.556400  1.495212e+01  5.232640e+00  6.330026e+00  # Hw water
    262      88    1  -1.112800  2.729588e+01  1.948241e+01  3.501057e+00  # Ow water
    263      88    2   0.556400  2.803049e+01  1.923970e+01  2.937445e+00  # Hw water
    264      88    2   0.556400  2.770147e+01  1.992454e+01  4.246882e+00  # Hw water
    265      89    1  -1.112800  3.019163e+01  6.384713e+00  5.014086e+00  # Ow water
    266      89    2   0.556400  3.003623e+01  6.463401e+00  4.072871e+00  # Hw water
    267      89    2   0.556400  2.946070e+01  5.856313e+00  5.334658e+00  # Hw water
    268      90    1  -1.112800  2.176135e+01  2.189891e+01  2.121434e+01  # Ow water
    269      90    2   0.556400  2.178743e+01  2.284436e+01  2.136153e+01  # Hw water
    270      90    2   0.556400  2.266202e+01  2.160865e+01  2.135848e+01  # Hw water
    271      91    1  -1.112800  2.237521e+01  1.969210e+01  2.553019e+01  # Ow water
    272      91    2   0.556400  2.264915e+01  2.048470e+01  2.599168e+01  # Hw water
    273      91    2   0.556400  2.229575e+01  1.902994e+01  2.621682e+01  # Hw water
    274      92    1  -1.112800  2.306318e+01  8.639561e+00  1.105917e+01  # Ow water
    275      92    2   0.556400  2.346208e+01  9.461580e+00  1.134446e+01  # Hw water
    276      92    2   0.556400  2.313797e+01  8.654957e+00  1.010502e+01  # Hw water
    277      93    1  -1.112800  5.570337e+00  2.588034e+01  9.450513e+00  # Ow water
    278      93    2   0.556400  5.795969e+00  2.507808e+01  8.979663e+00  # Hw water
    279      93    2   0.556400  5.082800e+00  2.640316e+01  8.813960e+00  # Hw water
    280      94    1  -1.112800  4.954936e+00  1.134155e+01  1.712980e+01  # Ow water
    281      94    2   0.556400  5.609496e+00  1.086385e+01  1.763929e+01  # Hw water
    282      94    2   0.556400  4.220896e+00  1.073231e+01  1.705075e+01  # Hw water
    283      95    1  -1.112800  1.574460e+01  2.298540e+00  1.798558e+01  # Ow water
    284      95    2   0.556400  1.566287e+01  2.853157e+00  1.876143e+01  # Hw water
    285      95    2   0.556400  1.616091e+01  1.498178e+00  1.830549e+01  # Hw water
    286      96    1  -1.112800  1.068631e+01  1.674967e+01  3.933802e+00  # Ow water
    287      96    2   0.556400  1.030247e+01  1.761766e+01  3.809337e+00  # Hw water
    288      96    2   0.556400  1.162510e+01  1.691313e+01  4.024290e+00  # Hw water
    289      97    1  -1.112800  1.498189e+00  2.208306e+01  5.673676e+00  # Ow water
    290      97    2   0.556400  1.504632e+00  2.303323e+01  5.789236e+00  # Hw water
    291      97    2   0.556400  1.507547e+00  2.173289e+01  6.564477e+00  # Hw water
    292      98    1  -1.112800  2.079970e+01  1.441186e+01  2.131063e+01  # Ow water
    293      98    2   0.556400  2.060152e+01  1.348283e+01  2.119295e+01  # Hw water
    294      98    2   0.556400  2.150788e+01  1.442651e+01  2.195444e+01  # Hw water
    295      99    1  -1.112800  2.256531e+01  2.111981e+01  8.358855e+00  # Ow water
    296      99    2   0.556400  2.195039e+01  2.157084e+01  7.780347e+00  # Hw water
    297      99    2   0.556400  2.342482e+01  2.145501e+01  8.103664e+00  # Hw water
    298     100    1  -1.112800  2.190122e+01  3.584175e+00  2.835247e+01  # Ow water
    299     100    2   0.556400  2.249736e+01  3.167550e+00  2.773017e+01  # Hw water
    300     100    2   0.556400  2.137083e+01  4.175084e+00  2.781792e+01  # Hw water
    301     101    1  -1.112800  2.926645e+01  2.525827e+01  2.964591e+01  # Ow water
    302     101    2   0.556400  3.018303e+01  2.552719e+01  2.970743e+01  # Hw water
    303     101    2   0.556400  2.879440e+01  2.588843e+01  3.019024e+01  # Hw water
    304     102    1  -1.112800  2.466092e+01  1.836100e+00  2.078464e+00  # Ow water
    305     102    2   0.556400  2.535347e+01  1.498001e+00  1.510752e+00  # Hw water
    306     102    2   0.556400  2.410519e+01  2.354440e+00  1.496474e+00  # Hw water
    307     103    1  -1.112800  2.050782e+01  3.004326e+01  2.161763e+01  # Ow water
    308     103    2   0.556400  1.957021e+01  3.019021e+01  2.149304e+01  # Hw water
    309     103    2   0.556400  2.088467e+01  3.014335e+01  2.074346e+01  # Hw water
    310     104    1  -1.112800  1.286306e+01  2.925783e+01  2.673898e+00  # Ow water
    311     104    2   0.556400  1.275977e+01  2.854873e+01  2.039287e+00  # Hw water
    312     104    2   0.556400  1.313973e+01  3.000995e+01  2.150446e+00  # Hw water
    313     105    1  -1.112800  2.375387e+00  6.316135e+00  1.242653e+01  # Ow water
    314     105    2   0.556400  1.499478e+00  5.938451e+00  1.234674e+01  # Hw water
    315     105    2   0.556400  2.227918e+00  7.261641e+00  1.244889e+01  # Hw water
    316     106    1  -1.112800  1.290430e+01  7.244444e+00  2.094606e+00  # Ow water
    317     106    2   0.556400  1.334693e+01  7.872508e+00  1.523779e+00  # Hw water
    318     106    2   0.556400  1.252387e+01  6.602213e+00  1.495409e+00  # Hw water
    319     107    1  -1.112800  2.011094e+01  3.018986e+01  2.803209e+01  # Ow water
    320     107    2   0.556400  2.011838e+01  3.004856e+01  2.897877e+01  # Hw water
    321     107    2   0.556400  2.038611e+01  2.935105e+01  2.766207e+01  # Hw water
    322     108    1  -1.112800  1.590440e+01  2.062657e+01  5.389257e+00  # Ow water
    323     108    2   0.556400  1.670585e+01  2.029359e+01  5.793029e+00  # Hw water
    324     108    2   0.556400  1.520228e+01  2.011700e+01  5.793723e+00  # Hw water
    325     109    1  -1.112800  1.845405e+01  2.442178e+01  7.753136e+00  # Ow water
    326     109    2   0.556400  1.802076e+01  2.415439e+01  8.563686e+00  # Hw water
    327     109    2   0.556400  1.774233e+01  2.472427e+01  7.189055e+00  # Hw water
    328     110    1  -1.112800  2.375268e+00  2.740548e+00  1.503527e+01  # Ow water
    329     110    2   0.556400  2.856604e+00  2.949846e+00  1.423480e+01  # Hw water
    330     110    2   0.556400  1.496353e+00  2.510818e+00  1.473367e+01  # Hw water
    331     111    1  -1.112800  2.459762e+01  7.149582e+00  8.743723e+00  # Ow water
    332     111    2   0.556400  2.520970e+01  6.483096e+00  8.431680e+00  # Hw water
    333     111    2   0.556400  2.373229e+01  6.795946e+00  8.537842e+00  # Hw water
    334     112    1  -1.112800  9.210315e+00  2.832946e+01  2.764069e+01  # Ow water
    335     112    2   0.556400  8.838886e+00  2.804895e+01  2.680428e+01  # Hw water
    336     112    2   0.556400  9.883558e+00  2.767739e+01  2.783505e+01  # Hw water
    337     113    1  -1.112800  1.499330e+00  5.879312e+00  1.532428e+01  # Ow water
    338     113    2   0.556400  1.499474e+00  6.653711e+00  1.476166e+01  # Hw water
    339     113    2   0.556400  1.502946e+00  5.140513e+00  1.471568e+01  # Hw water
    340     114    1  -1.112800  2.500200e+01  4.176158e+00  2.588836e+01  # Ow water
    341     114    2   0.556400  2.447637e+01  4.732638e+00  2.531367e+01  # Hw water
    342     114    2   0.556400  2.454313e+01  4.197191e+00  2.672814e+01  # Hw water
    343     115    1  -1.112800  1.913598e+01  2.775966e+01  2.064545e+00  # Ow water
    344     115    2   0.556400  1.967465e+01  2.834211e+01  1.529001e+00  # Hw water
    345     115    2   0.556400  1.895972e+01  2.700800e+01  1.498706e+00  # Hw water
    346     116    1  -1.112800  2.419956e+00  1.895369e+01  1.699606e+01  # Ow water