LAMMPS (23 Jun 2022 - Update 2)
WARNING: Using I/O redirection is unreliable with parallel runs. Better use -in switch to read input file. (../lammps.cpp:530)
Reading data file ...
  orthogonal box = (0 0 0) to (31.689281 31.689281 31.689281)
  2 by 2 by 3 MPI processor grid
  reading atoms ...
  3162 atoms
  scanning bonds ...
  4 = max bonds/atom
  scanning angles ...
  6 = max angles/atom
  reading bonds ...
  2108 bonds
  reading angles ...
  1108 angles
Finding 1-2 1-3 1-4 neighbors ...
  special bond factors lj:    0        0        0       
  special bond factors coul:  0        0        0       
     4 = max # of 1-2 neighbors
     3 = max # of 1-3 neighbors
     3 = max # of 1-4 neighbors
     4 = max # of special neighbors
  special bonds CPU = 0.003 seconds
  read_data CPU = 0.033 seconds
Setting atom values ...
  1000 settings made for charge
Setting atom values ...
  2000 settings made for charge
Setting atom values ...
  36 settings made for charge
Setting atom values ...
  36 settings made for charge
Setting atom values ...
  18 settings made for charge
Setting atom values ...
  72 settings made for charge
1000 atoms in group wat
36 atoms in group Li
18 atoms in group S
  create bodies CPU = 0.001 seconds
  1054 rigid bodies with 3162 atoms
  1.4900046 = max distance from body owner to body atom
PPPM initialization ...
  extracting TIP4P info from pair style
  using 12-bit tables for long-range coulomb (../kspace.cpp:342)
  G vector (1/distance) = 0.31119582
  grid = 30 30 30
  stencil order = 5
  estimated absolute RMS force accuracy = 0.0035544154
  estimated relative force accuracy = 1.0704016e-05
  using double precision KISS FFT
  3d grid and FFT values/proc = 8228 2700
Generated 0 of 15 mixed pair_coeff terms from arithmetic mixing rule
Neighbor list info ...
  update every 1 steps, delay 0 steps, check yes
  max neighbors/atom: 2000, page size: 100000
  master list distance cutoff = 12.3092
  ghost atom cutoff = 12.3092
  binsize = 6.1546, bins = 6 6 6
  1 neighbor lists, perpetual/occasional/extra = 1 0 0
  (1) pair lj/cut/tip4p/long, perpetual
      attributes: half, newton on
      pair build: half/bin/newton
      stencil: half/bin/3d
      bin: standard
Setting up Verlet run ...
  Unit style    : real
  Current step  : 0
  Time step     : 0.001
Per MPI rank memory allocation (min/avg/max) = 16.51 | 16.86 | 16.95 Mbytes
   Step        Density          Temp          Press          TotEng    
         0   1.0433267      292.8022      -7097162.3      5828.8265    
      1000   1.0426939      310.53777      78548.261      5806.7637    
      2000   1.0405359      365.68786      75789.899      5730.1861    
      3000   1.0369137      453.63407      70886.587      5594.449     
      4000   1.0319352      565.55002      63698.6        5385.0073    
      5000   1.025758       691.93881      54961.716      5095.9361    
      6000   1.0185724      827.41051      46995.625      4750.7489    
      7000   1.0105653      962.83762      39213.025      4348.8714    
      8000   1.0019258      1090.3961      30776.965      3895.2794    
      9000   0.99285292     1202.9244      23616.9        3393.4477    
     10000   0.98352733     1296.375       17090.93       2857.8057    
Loop time of 90.6367 on 12 procs for 10000 steps with 3162 atoms

Performance: 0.010 ns/day, 2517.687 hours/ns, 110.331 timesteps/s
94.7% CPU use with 12 MPI tasks x no OpenMP threads

MPI task timing breakdown:
Section |  min time  |  avg time  |  max time  |%varavg| %total
---------------------------------------------------------------
Pair    | 51.793     | 54.302     | 58.888     |  32.3 | 59.91
Bond    | 0.20137    | 0.22787    | 0.26067    |   3.2 |  0.25
Kspace  | 13.293     | 17.872     | 20.365     |  56.1 | 19.72
Neigh   | 0.0077575  | 0.0077714  | 0.0077891  |   0.0 |  0.01
Comm    | 1.7123     | 1.736      | 1.7544     |   1.0 |  1.92
Output  | 0.00063324 | 0.00080965 | 0.002685   |   0.0 |  0.00
Modify  | 13.008     | 14.805     | 16.183     |  34.5 | 16.33
Other   |            | 1.685      |            |       |  1.86

Nlocal:          263.5 ave         275 max         254 min
Histogram: 3 1 1 0 1 1 3 0 0 2
Nghost:        5311.83 ave        5451 max        5076 min
Histogram: 2 2 0 0 0 0 0 0 6 2
Neighs:        96901.1 ave      103906 max       90647 min
Histogram: 1 2 1 0 4 1 0 0 1 2

Total # of neighbors = 1162813
Ave neighs/atom = 367.74605
Ave special neighs/atom = 2.0341556
Neighbor list builds = 2
Dangerous builds = 0
PPPM initialization ...
  extracting TIP4P info from pair style
  using 12-bit tables for long-range coulomb (../kspace.cpp:342)
  G vector (1/distance) = 0.30977793
  grid = 30 30 30
  stencil order = 5
  estimated absolute RMS force accuracy = 0.0037689653
  estimated relative force accuracy = 1.1350127e-05
  using double precision KISS FFT
  3d grid and FFT values/proc = 8228 2700
Generated 0 of 15 mixed pair_coeff terms from arithmetic mixing rule
Setting up Verlet run ...
  Unit style    : real
  Current step  : 10000
  Time step     : 0.01
Per MPI rank memory allocation (min/avg/max) = 16.51 | 16.86 | 16.95 Mbytes
   Step        Density          Temp          Press          TotEng    
     10000   0.98352733     1296.375       5395.8057      2857.8029    
     11000   0.9014458      1209.5454     -9564.7906     -2264.5319    
     12000   0.85643263     855.82423     -10941.825     -4919.5514    
     13000   0.83918149     728.82814     -10037.211     -6591.6782    
     14000   0.84248094     626.80946     -9106.2072     -7899.9337    
     15000   0.86277313     560.64514     -7298.5617     -8955.6768    
     16000   0.89641979     521.61299     -5593.0393     -9863.0253    
     17000   0.93855761     488.131       -2769.9262     -10617.746    
     18000   0.98208468     475.91106     -329.14818     -11205.695    
     19000   1.0219688      467.46232      1029.7765     -11737.027    
     20000   1.056164       449.69238      2670.1016     -12204.246    
Loop time of 85.0533 on 12 procs for 10000 steps with 3162 atoms

Performance: 0.102 ns/day, 236.259 hours/ns, 117.573 timesteps/s
94.1% CPU use with 12 MPI tasks x no OpenMP threads

MPI task timing breakdown:
Section |  min time  |  avg time  |  max time  |%varavg| %total
---------------------------------------------------------------
Pair    | 45.485     | 48.914     | 53.606     |  34.6 | 57.51
Bond    | 0.20251    | 0.22644    | 0.24241    |   2.5 |  0.27
Kspace  | 13.692     | 18.382     | 21.813     |  56.5 | 21.61
Neigh   | 0.056442   | 0.056532   | 0.056671   |   0.0 |  0.07
Comm    | 1.5857     | 1.6372     | 1.6848     |   2.0 |  1.92
Output  | 0.00064692 | 0.00080999 | 0.0025658  |   0.0 |  0.00
Modify  | 12.395     | 14.175     | 15.566     |  35.2 | 16.67
Other   |            | 1.662      |            |       |  1.95

Nlocal:          263.5 ave         277 max         254 min
Histogram: 2 0 3 2 1 1 1 0 0 2
Nghost:        5550.17 ave        5616 max        5444 min
Histogram: 3 0 1 0 0 0 0 0 4 4
Neighs:         102954 ave      110084 max       95325 min
Histogram: 1 1 1 1 3 2 0 0 0 3

Total # of neighbors = 1235448
Ave neighs/atom = 390.71727
Ave special neighs/atom = 2.0341556
Neighbor list builds = 15
Dangerous builds = 0
PPPM initialization ...
  extracting TIP4P info from pair style
  using 12-bit tables for long-range coulomb (../kspace.cpp:342)
  G vector (1/distance) = 0.31148846
  grid = 30 30 30
  stencil order = 5
  estimated absolute RMS force accuracy = 0.0035115562
  estimated relative force accuracy = 1.0574947e-05
  using double precision KISS FFT
  3d grid and FFT values/proc = 8228 2700
Generated 0 of 15 mixed pair_coeff terms from arithmetic mixing rule
Setting up Verlet run ...
  Unit style    : real
  Current step  : 20000
  Time step     : 0.1
Per MPI rank memory allocation (min/avg/max) = 16.51 | 16.86 | 16.95 Mbytes
   Step        Density          Temp          Press          TotEng    
     20000   1.056164       449.69238      2586.5616     -12204.249    
     21000   1.1483718      318.9631       102.18935     -15310.872    
     22000   1.1474994      297.40549      324.32404     -16073.887    
     23000   1.1339981      302.94105     -1449.21       -16250.616    
     24000   1.1355364      293.5516       896.68645     -16447.435    
     25000   1.1256684      303.71865      310.88051     -16453.349    
     26000   1.1147501      297.8395       103.81872     -16472.128    
     27000   1.1104622      310.38137     -466.51648     -16543.772    
     28000   1.1044941      308.4615      -91.908722     -16455.543    
     29000   1.1098825      293.96687      457.80712     -16646.25     
     30000   1.1068394      306.35533     -68.528374     -16512.153    
Loop time of 98.5719 on 12 procs for 10000 steps with 3162 atoms

Performance: 0.877 ns/day, 27.381 hours/ns, 101.449 timesteps/s
95.1% CPU use with 12 MPI tasks x no OpenMP threads

MPI task timing breakdown:
Section |  min time  |  avg time  |  max time  |%varavg| %total
---------------------------------------------------------------
Pair    | 57.359     | 60.952     | 63.324     |  26.4 | 61.83
Bond    | 0.21274    | 0.22899    | 0.2557     |   2.1 |  0.23
Kspace  | 15.627     | 17.999     | 21.595     |  48.5 | 18.26
Neigh   | 0.4093     | 0.40974    | 0.41023    |   0.0 |  0.42
Comm    | 1.8479     | 1.8745     | 1.8935     |   1.1 |  1.90
Output  | 0.00064086 | 0.00080492 | 0.0025737  |   0.0 |  0.00
Modify  | 13.605     | 15.4       | 16.766     |  33.8 | 15.62
Other   |            | 1.707      |            |       |  1.73

Nlocal:          263.5 ave         272 max         255 min
Histogram: 3 0 1 1 1 1 1 0 3 1
Nghost:        5688.17 ave        5724 max        5647 min
Histogram: 2 0 1 3 0 0 0 1 3 2
Neighs:         108276 ave      115047 max      102303 min
Histogram: 4 0 0 0 3 0 1 2 1 1

Total # of neighbors = 1299312
Ave neighs/atom = 410.91461
Ave special neighs/atom = 2.0341556
Neighbor list builds = 94
Dangerous builds = 0
PPPM initialization ...
  extracting TIP4P info from pair style
  using 12-bit tables for long-range coulomb (../kspace.cpp:342)
  G vector (1/distance) = 0.31260616
  grid = 30 30 30
  stencil order = 5
  estimated absolute RMS force accuracy = 0.0033521835
  estimated relative force accuracy = 1.0095001e-05
  using double precision KISS FFT
  3d grid and FFT values/proc = 8228 2700
Generated 0 of 15 mixed pair_coeff terms from arithmetic mixing rule
Setting up Verlet run ...
  Unit style    : real
  Current step  : 30000
  Time step     : 0.2
Per MPI rank memory allocation (min/avg/max) = 16.89 | 16.93 | 16.96 Mbytes
   Step        Density          Temp          Press          TotEng    
     30000   1.1068394      306.35533      2260.7048     -16512.156    
     31000   1.0961012      290.42577      449.13564     -16638.232    
     32000   1.1021703      302.92215      380.82158     -16645.364    
     33000   1.085385       302.3439      -428.45855     -16654.594    
     34000   1.0850927      297.95353     -1022.8343     -16595.852    
     35000   1.0913387      298.2373       145.42533     -16774.646    
     36000   1.0851515      290.72609      34.099633     -16700.674    
     37000   1.0844775      298.6752      -462.90771     -16687.827    
     38000   1.0994335      296.56939      1335.6001     -16773.996    
     39000   1.0899457      297.0093       311.97325     -16710.705    
     40000   1.0878899      292.19381     -28.791345     -16714.617    
Loop time of 98.986 on 12 procs for 10000 steps with 3162 atoms

Performance: 1.746 ns/day, 13.748 hours/ns, 101.024 timesteps/s
94.8% CPU use with 12 MPI tasks x no OpenMP threads

MPI task timing breakdown:
Section |  min time  |  avg time  |  max time  |%varavg| %total
---------------------------------------------------------------
Pair    | 55.673     | 60.287     | 64.561     |  33.2 | 60.90
Bond    | 0.21136    | 0.22976    | 0.25881    |   2.3 |  0.23
Kspace  | 14.35      | 18.616     | 23.222     |  59.7 | 18.81
Neigh   | 0.91922    | 0.92103    | 0.92281    |   0.1 |  0.93
Comm    | 1.8509     | 1.8699     | 1.8984     |   1.0 |  1.89
Output  | 0.00064568 | 0.0008135  | 0.0026161  |   0.0 |  0.00
Modify  | 13.553     | 15.361     | 16.736     |  33.8 | 15.52
Other   |            | 1.701      |            |       |  1.72

Nlocal:          263.5 ave         282 max         249 min
Histogram: 3 0 0 3 1 0 3 1 0 1
Nghost:        5581.17 ave        5621 max        5539 min
Histogram: 2 0 2 1 0 3 0 0 2 2
Neighs:         106476 ave      117032 max       94671 min
Histogram: 2 0 0 1 4 1 0 1 2 1

Total # of neighbors = 1277707
Ave neighs/atom = 404.08191
Ave special neighs/atom = 2.0341556
Neighbor list builds = 218
Dangerous builds = 0
PPPM initialization ...
  extracting TIP4P info from pair style
  using 12-bit tables for long-range coulomb (../kspace.cpp:342)
  G vector (1/distance) = 0.31219502
  grid = 30 30 30
  stencil order = 5
  estimated absolute RMS force accuracy = 0.0034100205
  estimated relative force accuracy = 1.0269176e-05
  using double precision KISS FFT
  3d grid and FFT values/proc = 8228 2700
Generated 0 of 15 mixed pair_coeff terms from arithmetic mixing rule
Setting up Verlet run ...
  Unit style    : real
  Current step  : 40000
  Time step     : 0.5
Per MPI rank memory allocation (min/avg/max) = 16.89 | 16.93 | 16.96 Mbytes
   Step        Density          Temp          Press          TotEng    
     40000   1.0878899      292.19381      993.74972     -16714.617    
     41000   1.0877674      293.20223     -630.84666     -16847.761    
     42000   1.0979557      301.48788      700.89017     -16832.668    
     43000   1.0809991      305.84503     -92.68533      -16665.565    
     44000   1.0858155      294.81411     -221.79205     -16747.301    
     45000   1.0918309      301.31984     -218.50922     -16746.609    
     46000   1.0769656      298.98381     -187.63389     -16679.804    
     47000   1.0820142      299.19615     -205.85335     -16738.642    
     48000   1.0837729      298.59804     -252.59147     -16822.302    
     49000   1.0828405      289.82063     -428.85394     -16868.96     
     50000   1.0828804      289.23205      553.37137     -16849.115    
Loop time of 103.092 on 12 procs for 10000 steps with 3162 atoms

Performance: 4.190 ns/day, 5.727 hours/ns, 97.001 timesteps/s
94.1% CPU use with 12 MPI tasks x no OpenMP threads

MPI task timing breakdown:
Section |  min time  |  avg time  |  max time  |%varavg| %total
---------------------------------------------------------------
Pair    | 56.773     | 60.831     | 66.054     |  40.6 | 59.01
Bond    | 0.21508    | 0.22929    | 0.25036    |   1.9 |  0.22
Kspace  | 15.023     | 20.26      | 24.302     |  70.3 | 19.65
Neigh   | 2.475      | 2.4792     | 2.4839     |   0.2 |  2.40
Comm    | 1.9437     | 1.9708     | 1.9907     |   1.1 |  1.91
Output  | 0.00066179 | 0.00082756 | 0.0025889  |   0.0 |  0.00
Modify  | 13.798     | 15.598     | 16.989     |  33.6 | 15.13
Other   |            | 1.723      |            |       |  1.67

Nlocal:          263.5 ave         275 max         248 min
Histogram: 1 0 1 1 1 2 1 2 2 1
Nghost:        5594.83 ave        5634 max        5563 min
Histogram: 1 2 0 4 0 0 3 0 1 1
Neighs:         106062 ave      115407 max       97009 min
Histogram: 1 0 3 1 0 2 2 2 0 1

Total # of neighbors = 1272741
Ave neighs/atom = 402.51139
Ave special neighs/atom = 2.0341556
Neighbor list builds = 575
Dangerous builds = 0
  create bodies CPU = 0.000 seconds
  1054 rigid bodies with 3162 atoms
  1.4900457 = max distance from body owner to body atom
PPPM initialization ...
  extracting TIP4P info from pair style
  using 12-bit tables for long-range coulomb (../kspace.cpp:342)
  G vector (1/distance) = 0.31208499
  grid = 30 30 30
  stencil order = 5
  estimated absolute RMS force accuracy = 0.003425653
  estimated relative force accuracy = 1.0316252e-05
  using double precision KISS FFT
  3d grid and FFT values/proc = 8228 2700
Generated 0 of 15 mixed pair_coeff terms from arithmetic mixing rule
Setting up Verlet run ...
  Unit style    : real
  Current step  : 0
  Time step     : 1
Per MPI rank memory allocation (min/avg/max) = 16.89 | 16.93 | 16.96 Mbytes
   Step        Density          Temp          Press          TotEng    
         0   1.0828804      289.23205      4411.7089     -16849.115    
      1000   1.0820129      289.89659     -1.5949042     -16865.721    
      2000   1.0783449      297.09432     -77.898313     -16846.626    
      3000   1.085684       301.94266      790.95077     -16794.567    
      4000   1.087294       295.53401      239.36067     -16847.274    
      5000   1.0880663      307.85479      576.99398     -16755.082    
      6000   1.0946071      298.22976     -391.12704     -16885.565    
      7000   1.0840744      300.31152      437.81092     -16853.99     
      8000   1.080972       296.77208      876.70234     -16810.52     
      9000   1.0744923      285.04075      44.195975     -16972.565    
     10000   1.0707666      296.70154      712.38584     -16856.81     
     11000   1.0785408      292.99382      261.22454     -16873.78     
     12000   1.0902004      284.91811      632.0848      -16873.758    
     13000   1.0770936      294.47321     -149.1889      -16787.798    
     14000   1.0990403      301.45331      906.05884     -16792.893    
     15000   1.0682688      302.60678     -571.61911     -16749.966    
     16000   1.075683       296.21401      319.39584     -16787.559    
     17000   1.0844292      297.74674     -222.21449     -16780.447    
     18000   1.0804808      293.97769      114.06718     -16850.253    
     19000   1.0829361      305.65427      58.223096     -16804.751    
     20000   1.0879088      297.74063      582.93751     -16837.784    
     21000   1.0701884      302.54029     -502.60724     -16740.577    
     22000   1.0911009      299.0573       692.79303     -16914.995    
     23000   1.0747553      298.70725      125.99054     -16732.461    
     24000   1.0817541      292.7027      -753.9745      -16843.137    
     25000   1.0818874      297.6864      -232.16324     -16872.287    
     26000   1.0815651      288.62706      641.89461     -16890.031    
     27000   1.0818999      297.23002      576.57303     -16847.565    
     28000   1.079845       296.13416      38.86383      -16757.588    
     29000   1.0715354      297.90294      509.05158     -16826.804    
     30000   1.0742995      299.24089      584.94049     -16852.345    
     31000   1.0710522      293.93268     -169.42302     -16849.07     
     32000   1.0800712      294.5794       362.49555     -16903.016    
     33000   1.0786678      293.5942      -395.83367     -16851.234    
     34000   1.0748754      293.75106     -424.82451     -16853.242    
     35000   1.0873354      293.88188      330.57152     -16885.974    
     36000   1.0757352      308.92226     -107.71613     -16794.82     
     37000   1.0760535      306.60118      1348.7369     -16739.564    
     38000   1.0860895      301.2213       403.88835     -16703.099    
     39000   1.0821756      300.93581     -406.62679     -16746.093    
     40000   1.0811466      289.93731      539.34103     -16874.838    
     41000   1.0815471      288.89936      55.500001     -16888.413    
     42000   1.0869795      305.04066      623.95879     -16831.411    
     43000   1.0795091      302.16663      408.89886     -16818.002    
     44000   1.0942922      299.87573      1053.5234     -16799.556    
     45000   1.0729596      288.67178      328.54777     -16860.454    
     46000   1.0656196      291.54551     -449.35129     -16934.57     
     47000   1.0800562      301.21254      418.97617     -16692.08     
     48000   1.0861437      299.91789      522.2643      -16864.155    
     49000   1.0909869      302.34011      535.75559     -16793.132    
     50000   1.086909       300.60494     -57.2116       -16744.285    
     51000   1.0897488      303.96755     -712.44069     -16776.798    
     52000   1.0844526      284.74765     -936.19122     -16953.92     
     53000   1.0865111      305.67874      119.154       -16798.841    
     54000   1.0829928      310.0668       451.34554     -16666.197    
     55000   1.081753       298.63185     -1.0550706     -16809.663    
     56000   1.0827146      292.80776     -581.67852     -16803.541    
     57000   1.0805821      292.71624     -250.34404     -16814.559    
     58000   1.0799922      301.19398     -233.38959     -16834.709    
     59000   1.0731761      292.91883     -59.508656     -16833.028    
     60000   1.0840092      301.05855      720.32877     -16805.934    
     61000   1.0800675      288.00366     -713.58307     -16828.036    
     62000   1.0821156      293.42595     -226.14071     -16848.639    
     63000   1.0823242      301.36442      516.36767     -16883.08     
     64000   1.0752124      304.74738      13.849634     -16706.056    
     65000   1.0957834      301.4453       915.13092     -16945.061    
     66000   1.0717848      291.99678     -555.20089     -16879.495    
     67000   1.0845163      295.14906      291.75843     -16881.234    
     68000   1.0752984      301.63548     -29.766677     -16751.385    
     69000   1.0815809      283.91442      501.0643      -16848.35     
     70000   1.06639        294.23191     -1040.4185     -16784.196    
     71000   1.0798866      306.6917       855.5982      -16749.53     
     72000   1.0789962      296.3749       326.79913     -16836.233    
     73000   1.0731462      303.51421      162.60064     -16781.83     
     74000   1.0895467      304.21382      378.16133     -16727.009    
     75000   1.0654706      302.74522     -38.802551     -16723.453    
     76000   1.084683       304.51589      561.93714     -16736.406    
     77000   1.0740206      290.5449      -719.57264     -16803.556    
     78000   1.0798489      296.446        374.12382     -16874.396    
     79000   1.0710773      310.14613      272.0613      -16587.79     
     80000   1.084524       298.09768     -47.029384     -16775.302    
     81000   1.0771019      297.16775      109.16016     -16774.223    
     82000   1.077063       292.90306      754.54188     -16820.977    
     83000   1.0815574      296.54008      620.01646     -16819.319    
     84000   1.0805392      295.16754      181.61878     -16842.216    
     85000   1.0715834      295.23685      194.6719      -16852.981    
     86000   1.0926723      297.88617      614.33468     -16844.127    
     87000   1.0808167      298.68224      157.44151     -16821.06     
     88000   1.0800992      294.03749     -156.86036     -16814.192    
     89000   1.0825716      295.44348      275.99552     -16872.518    
     90000   1.0627176      292.26952     -757.98537     -16856.002    
     91000   1.0847368      312.04212      726.42178     -16713.179    
     92000   1.0787563      302.00354     -245.53084     -16833.241    
     93000   1.0931427      297.42782      653.94142     -16832.546    
     94000   1.0761727      298.47647     -686.2329      -16818.832    
     95000   1.083529       298.46983      329.94446     -16770.412    
     96000   1.0795139      304.75798     -402.56796     -16784.897    
     97000   1.0876295      292.3754       393.8079      -16885.754    
     98000   1.0780167      307.73249     -137.30819     -16769.419    
     99000   1.074738       308.29992      209.55843     -16731.26     
    100000   1.0678125      291.33073     -369.12817     -16836.465    
    101000   1.0803465      295.21044      347.40692     -16763.715    
    102000   1.0828619      301.78272      623.34543     -16752.096    
    103000   1.069243       305.23808     -125.4574      -16651.605    
    104000   1.0759896      294.88839     -105.1128      -16759.192    
    105000   1.092499       299.65629      421.29471     -16837.31     
    106000   1.0883367      303.0024       205.42474     -16608.377    
    107000   1.0762545      292.86066     -108.7523      -16764.566    
    108000   1.0904793      302.1895       595.4528      -16780.694    
    109000   1.0770468      291.31684     -116.43566     -16859.849    
    110000   1.0789465      306.54099      676.62073     -16861.615    
    111000   1.0773977      294.64263      514.04604     -16824.078    
    112000   1.0623425      295.28718     -483.29808     -16832.467    
    113000   1.0838376      304.80288      152.09891     -16790.41     
    114000   1.0781865      297.13013     -13.436414     -16827.416    
    115000   1.075604       292.90818      467.11972     -16910.169    
    116000   1.0757306      302.49588     -129.16235     -16752.479    
    117000   1.0808718      300.99415     -577.17597     -16860.392    
    118000   1.0898401      296.24032      138.07125     -16720.142    
    119000   1.0744836      304.52694     -506.67511     -16709.806    
    120000   1.0797658      301.27567     -40.458539     -16759.758    
    121000   1.0782335      294.50639      233.8736      -16794.029    
    122000   1.0708214      292.47072     -68.865616     -16795.875    
    123000   1.0775406      301.92402      367.62386     -16686.129    
    124000   1.0728125      294.86553     -455.91065     -16802.846    
    125000   1.0910763      297.14009      293.5781      -16821.118    
    126000   1.0745259      301.67296     -348.03329     -16806.373    
    127000   1.0871876      297.90646     -598.33261     -16858.884    
    128000   1.0772628      300.4033      -757.06491     -16772.69     
    129000   1.0904843      304.75265      446.2283      -16804.385    
    130000   1.087734       299.58622     -120.07606     -16848.76     
    131000   1.0773838      294.69203     -259.01694     -16849.334    
    132000   1.0782126      308.55725     -90.172226     -16765.559    
    133000   1.0852302      291.67277      440.28713     -16917.881    
    134000   1.0879745      287.86223      282.29471     -16826.126    
    135000   1.0939332      300.58037      33.218674     -16754.432    
    136000   1.095507       294.58133      247.86931     -16791.998    
    137000   1.079275       301.09648     -231.81488     -16767.509    
    138000   1.0961425      295.52943      1279.854      -16826.076    
    139000   1.0803502      290.59302      87.023198     -16926.476    
    140000   1.0876308      298.76345      66.193712     -16754.522    
    141000   1.079244       294.509       -281.37642     -16813.743    
    142000   1.0874522      301.87328      27.903805     -16695.746    
    143000   1.0818497      284.8188       159.71038     -16821.139    
    144000   1.0803339      304.76249     -728.70548     -16740.202    
    145000   1.0750719      302.23863     -177.29994     -16824.106    
    146000   1.0822345      294.74989      400.66234     -16820.213    
    147000   1.0764695      303.02998     -562.10824     -16727.668    
    148000   1.0819508      294.34271     -434.69045     -16863.663    
    149000   1.0854489      300.79854     -188.58888     -16823.742    
    150000   1.0826922      290.32698     -275.73266     -16798.167    
    151000   1.0755438      297.85299      359.81881     -16785.874    
    152000   1.0765223      303.32815      875.70004     -16742.036    
    153000   1.0854803      294.17943      49.146405     -16950.785    
    154000   1.0853256      304.14144     -3.7824842     -16750.184    
    155000   1.0846275      302.55079     -99.366188     -16832.582    
    156000   1.0812479      291.59997     -509.56401     -16892.817    
    157000   1.0853315      308.80747     -233.76899     -16857.008    
    158000   1.0879692      302.20013     -202.71917     -16797        
    159000   1.0846747      283.68205      303.3937      -16913.829    
    160000   1.0827358      299.21947      217.055       -16817.492    
    161000   1.0813698      306.40549      1057.6146     -16755.307    
    162000   1.0774914      291.17167     -514.51545     -16866.192    
    163000   1.086203       296.38042      119.53315     -16803.283    
    164000   1.0808982      307.08431     -966.85752     -16750.881    
    165000   1.0884378      301.36302     -584.08887     -16818.371    
    166000   1.0862765      289.39222     -933.40313     -16910.403    
    167000   1.0856704      299.52017      22.452739     -16759.836    
    168000   1.0877601      289.0346      -319.11582     -16917.558    
    169000   1.0773588      288.51412     -180.90115     -16887.367    
    170000   1.0899043      300.13624      636.38592     -16788.029    
    171000   1.0826909      291.64565      308.20918     -16758.317    
    172000   1.0796373      300.25598      245.83405     -16740.5      
    173000   1.0726725      299.06238     -238.77931     -16884.197    
    174000   1.0781249      298.62601      498.95666     -16888.33     
    175000   1.0788338      289.44192     -441.17559     -16906.478    
    176000   1.079082       291.60733     -875.63305     -16840.433    
    177000   1.0804322      292.58204     -705.93595     -16796.507    
    178000   1.0851078      307.84348      340.07196     -16778.161    
    179000   1.06832        297.30365     -140.25492     -16831.474    
    180000   1.0756907      297.62235     -193.27305     -16766.358    
    181000   1.0754058      293.31882     -524.52901     -16862.826    
    182000   1.0883715      299.8083       962.17659     -16818.958    
    183000   1.0804564      294.94928     -378.53071     -16805.215    
    184000   1.079654       302.05444      92.930661     -16797.903    
    185000   1.081038       294.27197      687.56716     -16895.276    
    186000   1.0929805      311.1881       544.34469     -16783.364    
    187000   1.0752439      294.68069     -1093.7688     -16835.357    
    188000   1.0929445      292.90045      914.54026     -16924.053    
    189000   1.0849449      303.68711      162.04101     -16836.672    
    190000   1.0893326      294.46072      599.54814     -16884.286    
    191000   1.0826709      298.45437      165.08757     -16790.734    
    192000   1.0802719      297.1345      -68.37598      -16816.869    
    193000   1.0799507      296.50126     -1025.7153     -16822.664    
    194000   1.0913838      299.73144      99.109134     -16912.327    
    195000   1.0856718      289.36713     -69.962252     -16884.973    
    196000   1.0978882      302.61273      976.7319      -16844.909    
    197000   1.0715409      306.08771      208.15224     -16703.646    
    198000   1.0903547      287.36814      525.06349     -16878.276    
    199000   1.0729001      300.79588     -158.63118     -16796.494    
    200000   1.0703846      302.52135     -882.14998     -16791.037    
    201000   1.0770053      304.81455      597.6287      -16779.891    
    202000   1.0774735      302.18152      582.06407     -16751.979    
    203000   1.0740498      306.17437      13.526418     -16768.757    
    204000   1.0856511      295.95383      796.01286     -16851.361    
    205000   1.0829796      301.1858      -81.439122     -16838.207    
    206000   1.0852514      303.33577      420.76803     -16838.761    
    207000   1.0689707      297.19279     -896.65195     -16747.07     
    208000   1.0880151      307.82455     -91.995049     -16735.222    
    209000   1.0771424      297.37661      503.48262     -16782.431    
    210000   1.0865457      306.37206      914.28492     -16803.183    
    211000   1.0825256      297.37158     -832.37345     -16882.33     
    212000   1.085234       291.73738      137.85194     -16838.818    
    213000   1.0779081      298.77066     -327.59582     -16814.016    
    214000   1.1011793      297.31238      795.3668      -16748.861    
    215000   1.0828868      299.98629     -455.52377     -16629.809    
    216000   1.0957702      301.97677      8.0876275     -16810.055    
    217000   1.0925878      283.44723     -257.214       -16886.954    
    218000   1.0828141      297.5692      -957.50746     -16779.587    
    219000   1.0703206      301.23672     -678.67015     -16840.033    
    220000   1.0721951      299.00936     -238.86735     -16923.836    
    221000   1.0767636      304.00998     -199.31875     -16857.946    
    222000   1.0845667      301.67658      651.10887     -16793.726    
    223000   1.0826256      299.80757      711.45575     -16874.605    
    224000   1.0860691      303.70185      530.22629     -16742.387    
    225000   1.0702234      294.8417      -156.97076     -16767.918    
    226000   1.0810977      299.94868      333.71471     -16648.862    
    227000   1.0790561      296.14421     -493.11916     -16713.728    
    228000   1.0903718      293.01291      1086.3192     -16819.966    
    229000   1.0821884      301.66762     -300.2262      -16846.322    
    230000   1.0838486      300.64872     -305.61804     -16797.389    
    231000   1.091955       293.86229     -30.046337     -16878.766    
    232000   1.0782842      300.11949     -383.89484     -16772.421    
    233000   1.0870837      296.63522      315.66089     -16807.589    
    234000   1.08617        303.08514      430.35675     -16838.703    
    235000   1.0781374      293.58053     -335.7435      -16887.138    
    236000   1.085779       299.16105     -233.40066     -16757.79     
    237000   1.0744642      293.13754      115.91197     -16793.361    
    238000   1.0927835      291.969        757.27637     -16904.023    
    239000   1.063327       292.94019     -522.06433     -16771.002    
    240000   1.0767553      289.77897     -214.60697     -16825.243    
    241000   1.0644326      290.51925     -389.13806     -16936.633    
    242000   1.0762148      300.34525      665.86515     -16903.86     
    243000   1.0659901      299.1781      -240.65834     -16798.343    
    244000   1.0835396      294.28865      428.51218     -16843.984    
    245000   1.075347       293.21547     -524.53051     -16794.588    
    246000   1.0815156      301.67289     -248.5344      -16894.865    
    247000   1.065603       294.38931     -145.90149     -16795.595    
    248000   1.0814833      301.42397      606.32769     -16801.537    
    249000   1.0794997      303.93945      1419.988      -16822.384    
    250000   1.0766594      287.63626      370.11365     -16835.811    
    251000   1.0618814      294.43522     -536.17673     -16810.11     
    252000   1.0869069      293.46402      289.95078     -16936.695    
    253000   1.0692951      299.94978     -838.94555     -16730.074    
    254000   1.0886711      300.46394     -209.50083     -16885.962    
    255000   1.0672731      306.06954     -98.007371     -16702.011    
    256000   1.0791783      288.58413      63.783495     -16847.336    
    257000   1.0747337      301.78254     -265.35877     -16764.554    
    258000   1.0818108      310.80441      486.06269     -16785.827    
    259000   1.0777192      300.98762      357.77821     -16809.608    
    260000   1.0892857      302.34109      594.41751     -16749.647    
    261000   1.0824135      295.0571      -59.140342     -16832.859    
    262000   1.080267       293.34712      217.76962     -16881.038    
    263000   1.0730439      294.70348      704.19803     -16811.455    
    264000   1.0759627      308.41197      17.9773       -16693.247    
    265000   1.0841064      296.59751      545.25745     -16802.11     
    266000   1.0692865      302.81198     -144.11451     -16789.285    
    267000   1.090497       306.13255      141.96293     -16845.627    
    268000   1.0845848      304.59113      124.21975     -16777.404    
    269000   1.0818515      286.32387     -31.90425      -16906.677    
    270000   1.0871568      304.76993     -40.821865     -16696.393    
    271000   1.0743173      295.2323       16.814233     -16749.853    
    272000   1.0827575      298.93317      233.59737     -16788.686    
    273000   1.0688722      306.33849     -278.52085     -16693.707    
    274000   1.0837394      296.84109      173.9944      -16763.909    
    275000   1.0837514      306.85672     -473.89289     -16706.391    
    276000   1.0722901      300.24795     -438.84421     -16730.118    
    277000   1.0753321      302.27374     -410.50836     -16849.032    
    278000   1.0890467      296.31301      643.34147     -16869.726    
    279000   1.0731202      289.73522      278.79742     -16807.691    
    280000   1.0734675      301.11413     -343.76603     -16824.214    
    281000   1.0672751      295.11166     -86.203058     -16832.969    
    282000   1.0791594      296.28654      114.43681     -16842.579    
    283000   1.0635596      293.6686      -430.28586     -16741.945    
    284000   1.0831406      295.42849      435.45356     -16863.686    
    285000   1.0666184      290.42434     -877.34962     -16844.517    
    286000   1.0905932      310.50922      428.10604     -16726.708    
    287000   1.075614       298.9788       198.75718     -16745.313    
    288000   1.0833586      308.48528     -68.02512      -16785.357    
    289000   1.0732385      299.12348     -6.6485017     -16810.001    
    290000   1.0683069      299.53571     -752.38226     -16824.576    
    291000   1.0748398      301.22772      384.40602     -16807.721    
    292000   1.073737       294.84432      140.70982     -16919.782    
    293000   1.071093       298.08236      295.89147     -16770.624    
    294000   1.0743913      293.64056     -650.49656     -16904.219    
    295000   1.0825197      296.84085     -86.912711     -16870.721    
    296000   1.0640442      296.86385     -319.56183     -16776.609    
    297000   1.08026        303.9638      -247.28619     -16833.287    
    298000   1.0778739      300.63975     -286.36966     -16841.474    
    299000   1.0730615      293.91915     -450.07406     -16929.101    
    300000   1.0704361      299.48289     -633.01214     -16843.913    
    301000   1.073711       300.55177     -336.59158     -16745.949    
    302000   1.0783636      298.7843       393.48836     -16794.652    
    303000   1.0892205      296.42431      611.77769     -16834.464    
    304000   1.0823391      300.72132     -72.678828     -16830.583    
    305000   1.0887545      299.14124      642.89435     -16716.771    
    306000   1.0689437      294.89177     -127.91896     -16755.209    
    307000   1.0886723      302.95421     -240.19465     -16812.554    
    308000   1.0760268      310.77119      423.02052     -16714.903    
    309000   1.0655294      292.71799     -240.90171     -16910.694    
    310000   1.0796475      299.58246      207.76028     -16726.817    
    311000   1.0694224      292.50118     -1001.0823     -16901.976    
    312000   1.0797872      293.1678       673.76819     -16834.392    
    313000   1.070078       293.36057     -638.13428     -16812.089    
    314000   1.0684297      295.41182      98.203969     -16876.833    
    315000   1.0717376      295.8522       217.3658      -16835.413    
    316000   1.0829473      312.51617      189.03596     -16684.615    
    317000   1.0757369      297.61287     -590.03375     -16798.245    
    318000   1.0922207      289.82975      104.78645     -16853.859    
    319000   1.0867495      298.01172      6.032076      -16764.886    
    320000   1.090889       300.76418      763.75595     -16751.541    
    321000   1.0930641      293.30535      156.8847      -16926.296    
    322000   1.0771712      299.16953     -599.79742     -16834.153    
    323000   1.0818047      303.32486     -394.27967     -16855.717    
    324000   1.0803286      291.03678     -49.560591     -16745.653    
    325000   1.0868403      298.80489      28.510733     -16845.791    
    326000   1.0780745      303.6761      -874.27056     -16715.795    
    327000   1.0879148      298.5672      -399.08616     -16840.866    
    328000   1.0667372      302.64962     -187.15205     -16772.473    
    329000   1.086606       300.06502      777.89065     -16843.687    
    330000   1.0691185      290.74668     -1307.6768     -16795.082    
    331000   1.083438       293.63667     -303.36429     -16945.907    
    332000   1.0736357      296.77663     -423.21515     -16814.389    
    333000   1.0734307      302.30966      731.42554     -16798.872    
    334000   1.0800222      298.02899      461.03605     -16963.298    
    335000   1.0805464      291.12727      720.57073     -16787.973    
    336000   1.0921564      304.86783      1295.705      -16775.159    
    337000   1.0775392      291.5781      -107.31563     -16805.603    
    338000   1.0684925      298.51205     -934.40312     -16842.449    
    339000   1.0795896      291.07113      371.36539     -16843.592    
    340000   1.0819806      298.45494     -14.074849     -16781.792    
    341000   1.0807809      296.34387      474.74369     -16785.795    
    342000   1.0790047      305.94561     -321.11425     -16667.152    
    343000   1.0769869      310.5581      -31.906963     -16637.913    
    344000   1.0877609      294.40284      142.50666     -16881.276    
    345000   1.0790409      302.60101      251.07458     -16752.17     
    346000   1.0851258      296.0014      -104.61289     -16774.353    
    347000   1.0894542      286.35166      857.11232     -16927.71     
    348000   1.0816873      285.62561     -323.7203      -16909.052    
    349000   1.0807809      299.02298      618.74318     -16732.943    
    350000   1.0833384      295.03668      95.238702     -16881.628    
    351000   1.0802816      292.42039     -475.44809     -16812.457    
    352000   1.0795553      299.16744     -236.13183     -16818.504    
    353000   1.0839546      303.84366     -674.76916     -16755.42     
    354000   1.0767457      300.43759     -257.21166     -16802.056    
    355000   1.0769597      298.98351      728.92704     -16816.073    
    356000   1.0607529      293.4535      -352.26297     -16806.726    
    357000   1.0793596      294.48719      301.66165     -16831.837    
    358000   1.0713544      299.92927     -639.07431     -16813.365    
    359000   1.066595       306.5286       47.183826     -16695.184    
    360000   1.0871804      296.08293      432.89779     -16890.086    
    361000   1.0802071      299.18783     -361.28617     -16758.919    
    362000   1.0896665      296.62832     -238.67029     -16845.831    
    363000   1.0888251      298.26211      346.09734     -16873.88     
    364000   1.0653681      299.76405     -672.35014     -16817.495    
    365000   1.0819404      303.9601       211.95921     -16809.056    
    366000   1.0785086      301.01891     -271.66894     -16820.503    
    367000   1.0917504      300.24274      445.86832     -16873.047    
    368000   1.08132        295.84101     -1068.1466     -16813.005    
    369000   1.0834331      291.93492     -387.11815     -16798.213    
    370000   1.0789111      301.94712      15.273553     -16679.752    
    371000   1.0899169      287.71931      193.51345     -16848.992    
    372000   1.0859716      295.15006      473.01539     -16840.228    
    373000   1.0811414      294.3277       516.64345     -16744.161    
    374000   1.0683418      305.48711     -676.32623     -16776.857    
    375000   1.0857294      289.92609      575.76147     -16921.001    
    376000   1.0721126      299.34362     -241.6581      -16670.13     
    377000   1.0801843      299.16756      638.89872     -16784.615    
    378000   1.0822481      298.34921     -255.31338     -16769.987    
    379000   1.0768393      308.23116      287.18324     -16739.735    
    380000   1.0646005      293.84415     -319.60996     -16839.391    
    381000   1.0812153      296.56459      420.86192     -16813.542    
    382000   1.0781781      295.70272     -133.07868     -16884.018    
    383000   1.0841328      296.20426      408.89044     -16822.832    
    384000   1.0904519      294.85395      52.313242     -16812.939    
    385000   1.0846853      293.51363     -66.898536     -16887.772    
    386000   1.0866834      303.32856     -191.66506     -16776.898    
    387000   1.0961675      296.59603     -48.803257     -16874.027    
    388000   1.0758149      298.89527      77.718809     -16902.446    
    389000   1.0833394      295.98506      598.1238      -16912.04     
    390000   1.0837249      295.87402      151.70726     -16914.763    
    391000   1.0632717      291.99408     -449.36336     -16921.32     
    392000   1.080164       299.95108     -269.79675     -16866.858    
    393000   1.0710664      302.90922     -198.03001     -16824.79     
    394000   1.0759518      297.2956      -321.03941     -16878.121    
    395000   1.0745448      293.46423     -415.82661     -16911.287    
    396000   1.0898456      296.76117      179.63018     -16893.665    
    397000   1.0774042      284.61316     -672.85397     -17047.815    
    398000   1.0878002      299.1421      -325.42521     -16804.672    
    399000   1.0979956      297.47586      903.40253     -16839.543    
    400000   1.0766284      294.85979     -393.89403     -16800.092    
    401000   1.0761778      297.40395     -242.9324      -16823.138    
    402000   1.0750774      302.56246     -363.52314     -16767.201    
    403000   1.0859752      288.65597     -184.94287     -16902.297    
    404000   1.0785884      303.34454      164.78533     -16742.268    
    405000   1.086686       294.36962      92.126736     -16753.144    
    406000   1.0801783      296.67255     -587.35755     -16740.665    
    407000   1.0780969      299.19561     -941.65957     -16791.244    
    408000   1.0733425      296.3561      -456.24347     -16944.065    
    409000   1.0754208      297.48409     -552.3623      -16900.599    
    410000   1.0737327      302.14194      54.551141     -16751.989    
    411000   1.0677737      308.62894     -144.51223     -16812.97     
    412000   1.0767351      293.82972      108.41313     -16890.568    
    413000   1.0750125      303.54027     -495.25346     -16729.425    
    414000   1.0870336      298.13111      759.30314     -16814.476    
    415000   1.0788588      308.42037      184.45615     -16799.701    
    416000   1.0844055      297.95254     -333.27101     -16842.181    
    417000   1.0737919      298.63277      283.62429     -16823.579    
    418000   1.0802908      298.8542       544.73941     -16793.429    
    419000   1.0749995      288.44438     -89.051585     -16816.966    
    420000   1.085714       294.26505      95.304897     -16856.815    
    421000   1.0720336      302.32441     -466.06054     -16864.179    
    422000   1.0886458      298.39536      430.87551     -16886.109    
    423000   1.0854778      299.58744     -164.9329      -16853.939    
    424000   1.0845082      286.37057     -50.665591     -16936.781    
    425000   1.0814957      299.39722     -39.004464     -16808.277    
    426000   1.0792113      289.81397     -298.72667     -16802.691    
    427000   1.0789022      303.61618     -373.31125     -16784.371    
    428000   1.0897254      301.26529     -482.27223     -16809.246    
    429000   1.082651       291.53556     -124.46466     -16814.109    
    430000   1.0681437      305.96967     -207.35449     -16761.013    
    431000   1.0700188      296.03679     -247.14897     -16799.972    
    432000   1.0772204      297.57874     -148.8899      -16776.703    
    433000   1.0729998      290.03253     -199.85448     -16903.396    
    434000   1.0817782      318.25043     -145.42661     -16666.31     
    435000   1.0675612      292.56855     -561.02602     -16855.087    
    436000   1.071988       299.81839     -450.38297     -16803.932    
    437000   1.0852789      300.01539      559.03961     -16879.89     
    438000   1.0601285      300.84726     -141.29864     -16806.339    
    439000   1.0821861      294.99187      477.1551      -16866.832    
    440000   1.0755388      295.85847     -604.03603     -16837.452    
    441000   1.0773235      299.58943      710.03046     -16782.687    
    442000   1.0718713      295.87799     -118.54265     -16830.68     
    443000   1.0726713      293.33981     -299.1882      -16876.614    
    444000   1.0718419      293.03742     -16.562431     -16793.083    
    445000   1.0691561      299.38938      366.49787     -16822.011    
    446000   1.0731409      300.50252     -196.13353     -16941.545    
    447000   1.0827622      300.06615      406.96314     -16833.796    
    448000   1.076825       300.12069      21.764126     -16826.226    
    449000   1.0737749      304.15307      137.86736     -16818.478    
    450000   1.0826771      294.34145      152.99762     -16813.853    
    451000   1.0794479      296.02078      313.06267     -16809.298    
    452000   1.0871724      293.7058      -292.31567     -16888.769    
    453000   1.0717864      295.0783      -904.55509     -16753.258    
    454000   1.0943061      295.96594     -39.276959     -16847.385    
    455000   1.0837132      302.53613      213.41719     -16817.763    
    456000   1.0718593      290.89776      821.5984      -16861.609    
    457000   1.0821099      305.54019     -99.27733      -16807.724    
    458000   1.0744573      292.70209     -464.70438     -16832.602    
    459000   1.0742588      297.83033      576.97412     -16796.753    
    460000   1.0824777      299.63196     -124.712       -16922.026    
    461000   1.0717143      301.76623     -143.30466     -16824.545    
    462000   1.075222       290.94818     -346.31298     -16828.839    
    463000   1.0862389      295.19951     -16.262472     -16821.311    
    464000   1.0752198      298.82901     -1528.0142     -16796.905    
    465000   1.1042699      296.79342      580.06265     -16893.743    
    466000   1.0751154      297.81102     -1337.5268     -16766.676    
    467000   1.0888193      297.34341      516.84849     -16878.513    
    468000   1.0724934      296.61528     -140.33747     -16909.534    
    469000   1.0695769      293.04996     -428.83827     -16752.659    
    470000   1.0798604      289.10418     -596.29753     -16913.051    
    471000   1.0835315      302.7087      -49.799205     -16771.455    
    472000   1.091651       291.94835      290.31384     -16893.76     
    473000   1.0661438      292.33682     -975.31527     -16819.833    
    474000   1.1004861      293.23584      219.8956      -16855.639    
    475000   1.0794628      303.93529     -696.07938     -16731.383    
    476000   1.0824959      293.53941     -15.980545     -16924.941    
    477000   1.0979687      295.01255      621.81651     -16852.84     
    478000   1.082868       302.98005     -656.25431     -16791.148    
    479000   1.0813063      299.89642     -371.58945     -16803.384    
    480000   1.0878405      301.10081     -490.55342     -16833.868    
    481000   1.0822638      294.04189     -199.44353     -16845.58     
    482000   1.0870104      299.05058     -210.21699     -16764.933    
    483000   1.089894       290.86133     -879.1891      -16891.045    
    484000   1.0799313      304.75156     -232.14604     -16747.297    
    485000   1.0836403      301.44764     -335.67873     -16766.407    
    486000   1.077276       293.75088     -210.15817     -16755.803    
    487000   1.096375       298.12605     -222.3987      -16923.791    
    488000   1.0812189      287.5944      -51.032134     -16915.916    
    489000   1.077071       297.22547      347.85689     -16811.275    
    490000   1.0752737      299.71205      96.375486     -16737.505    
    491000   1.0908438      296.7533       403.87324     -16851.257    
    492000   1.0827844      302.83429      216.76067     -16876.457    
    493000   1.0878521      291.09021      561.88963     -16769.38     
    494000   1.0752703      295.23431     -98.169126     -16801.501    
    495000   1.0782825      293.481        121.50044     -16880.141    
    496000   1.0777407      292.51471      229.04316     -16908.55     
    497000   1.0728986      303.49065     -748.18742     -16751.854    
    498000   1.0846401      305.11738      308.65956     -16837.748    
    499000   1.0787606      297.9517      -154.00161     -16835.839    
    500000   1.0663247      296.85842     -41.43293      -16931.378    
    501000   1.0735949      295.97495     -120.2211      -16782.689    
    502000   1.0894758      294.32077      515.553       -16877.048    
    503000   1.0787685      290.60422      377.68103     -16890.334    
    504000   1.0825535      295.29405     -255.15216     -16830.593    
    505000   1.0687737      284.72658     -208.16998     -16906.315    
    506000   1.0721782      295.94377     -917.31098     -16873.874    
    507000   1.0866618      294.81546      921.48078     -16775.06     
    508000   1.0693717      307.74438     -121.05557     -16692.534    
    509000   1.0866603      299.39512      488.7844      -16796.993    
    510000   1.0852962      294.57258      400.42897     -16800.053    
    511000   1.0880478      306.70673     -74.494971     -16814.648    
    512000   1.0796209      296.97007      1365.6917     -16829.207    
    513000   1.0899638      302.66937      788.29019     -16779.04     
    514000   1.0809745      307.52009     -378.89292     -16753.915    
    515000   1.0859087      301.51636      585.33977     -16679.031    
    516000   1.0897085      299.20551      55.976099     -16852.58     
    517000   1.0681583      290.71475     -540.52203     -16859.315    
    518000   1.082981       307.41834      481.8935      -16772.48     
    519000   1.0935797      300.73738     -467.46312     -16830.879    
    520000   1.0900821      300.75788     -542.02219     -16819.622    
    521000   1.0858001      298.59836     -153.42482     -16841.597    
    522000   1.0722395      293.66445     -360.14622     -16831.051    
    523000   1.0816864      295.0462       344.04772     -16796.2      
    524000   1.080799       296.03498     -797.37368     -16805.719    
    525000   1.0829898      284.93528      205.00365     -16899.596    
    526000   1.0799755      293.28811      577.06016     -16913.47     
    527000   1.0844355      299.4915       157.27976     -16764.289    
    528000   1.0841101      294.12076     -26.162396     -16832.741    
    529000   1.0919436      299.59796      632.40966     -16913.554    
    530000   1.0726085      314.09347     -25.635066     -16663.369    
    531000   1.0713251      295.63732     -155.23998     -16802.56     
    532000   1.0878438      295.29015      921.85437     -16771.407    
    533000   1.0657433      291.72176     -145.91487     -16814.857    
    534000   1.0888195      299.39598      829.72879     -16795.116    
    535000   1.0613742      299.38352      32.402157     -16749.089    
    536000   1.0927814      298.15685      318.41648     -16911.786    
    537000   1.0766343      288.73775     -497.81201     -16865.642    
    538000   1.0873213      307.51244      119.28359     -16784.368    
    539000   1.0771668      300.09151     -174.86168     -16846.416    
    540000   1.07846        298.52195      179.04566     -16802.04     
    541000   1.0624733      303.40921     -315.17267     -16713.148    
    542000   1.0783628      300.23297      133.82111     -16772.984    
    543000   1.0833063      301.29937      309.07977     -16749.268    
    544000   1.0842679      299.27038      75.704876     -16881.663    
    545000   1.0765346      307.75151     -103.12376     -16683.999    
    546000   1.0873621      300.43476      683.87818     -16806.74     
    547000   1.0768597      293.80023     -722.68908     -16785.714    
    548000   1.0873622      302.39098     -194.94435     -16764.722    
    549000   1.0811559      299.1085      -165.68739     -16859.647    
    550000   1.0778412      291.43486     -483.82828     -16843.878    
    551000   1.0807692      301.34926      816.95631     -16751.831    
    552000   1.0696779      302.38262     -433.07658     -16731.678    
    553000   1.0817189      308.97336      408.2353      -16741.043    
    554000   1.0767253      299.65164      16.600923     -16776.83     
    555000   1.0788077      288.13371      320.8489      -16760.074    
    556000   1.079382       297.81178     -59.89006      -16825.848    
    557000   1.0836887      289.18483      714.76788     -16881.29     
    558000   1.0816571      289.50886     -280.54753     -16867.53     
    559000   1.0724635      301.83126     -121.98618     -16714.932    
    560000   1.0797703      300.02001      284.11618     -16774.494    
    561000   1.0712911      288.42824     -179.19124     -16836.381    
    562000   1.0856532      293.3515       320.38887     -16771.972    
    563000   1.0853234      295.09758      632.38567     -16870.163    
    564000   1.0745892      295.38912     -48.055307     -16802.722    
    565000   1.0805013      286.22389     -39.963836     -16878.369    
    566000   1.0912786      285.37596     -408.68302     -16959.9      
    567000   1.0865071      297.92651      404.52421     -16828.31     
    568000   1.0753718      296.43943     -1073.1587     -16852.809    
    569000   1.0885163      293.07237      1119.2287     -16815.221    
    570000   1.0757037      300.14524     -218.45264     -16822.807    
    571000   1.0789905      302.50579      463.60815     -16854.705    
    572000   1.07802        295.26702      56.069343     -16851.52     
    573000   1.0827241      286.50047      234.69676     -16936.846    
    574000   1.0790951      293.6626       1006.2662     -16879.107    
    575000   1.0796943      285.4962      -416.22221     -17006.971    
    576000   1.0828571      309.04882     -100.65108     -16828.558    
    577000   1.0776147      296.10444     -482.54374     -16853.75     
    578000   1.0626097      297.64058     -302.57075     -16864.786    
    579000   1.0685182      297.6479      -109.72304     -16808.744    
    580000   1.0696804      304.3654       525.50785     -16772.897    
    581000   1.0705973      303.48153      589.33221     -16735.028    
    582000   1.0704302      296.88139     -308.7178      -16811.456    
    583000   1.0665356      295.02919     -492.08237     -16770.722    
    584000   1.0701069      300.05759      509.09598     -16767.354    
    585000   1.0860317      294.31495     -80.478803     -16748.408    
    586000   1.0802955      301.59073     -279.49581     -16842.703    
    587000   1.0908834      297.08789      11.538927     -16804.375    
    588000   1.0790546      291.83388      335.00785     -16833.601    
    589000   1.0720847      301.03902      0.49092193    -16698.201    
    590000   1.083419       293.57867      49.418334     -16826.431    
    591000   1.0877443      294.19263      831.16393     -16807.654    
    592000   1.0773292      295.52673     -454.83107     -16807.184    
    593000   1.0821561      299.11771      374.28977     -16798.353    
    594000   1.0725169      297.55958     -523.91824     -16836.34     
    595000   1.0926534      293.84695      512.86916     -16954.136    
    596000   1.0755481      298.27791     -239.09774     -16781.743    
    597000   1.0739566      295.28628     -566.27221     -16877.847    
    598000   1.0762216      292.13448     -261.75529     -16846.464    
    599000   1.0850036      300.89221      720.25637     -16822.545    
    600000   1.0743356      303.16191     -1161.1444     -16758.133    
    601000   1.0894059      297.61946      505.4362      -16827.261    
    602000   1.0823879      305.17849     -416.05467     -16753.864    
    603000   1.082542       289.2968      -181.90806     -16823.238    
    604000   1.076978       289.3769      -175.80216     -16903.834    
    605000   1.0918962      300.2078       929.99597     -16833.097    
    606000   1.0680173      301.90897     -597.91746     -16802.189    
    607000   1.0903247      309.25021      378.9047      -16764.494    
    608000   1.0733533      310.66742     -74.438264     -16709.393    
    609000   1.0737581      298.27632     -27.531373     -16822.343    
    610000   1.0740782      303.76374      193.64316     -16738.343    
    611000   1.0837946      291.78793      180.71607     -16885.925    
    612000   1.0780709      299.72889     -224.95921     -16795.453    
    613000   1.0778362      297.99984      385.86536     -16820.212    
    614000   1.0801109      291.78418      130.79813     -16790.308    
    615000   1.0792688      299.81635      469.49585     -16759.571    
    616000   1.0841009      293.12456      299.47453     -16831.106    
    617000   1.0907905      301.50657     -37.102625     -16811.408    
    618000   1.0980927      300.2224       870.87013     -16838.289    
    619000   1.0707867      305.96835     -1274.2961     -16788.599    
    620000   1.09334        300.96305      703.58144     -16889.249    
    621000   1.0801593      293.26401     -157.56539     -16793.816    
    622000   1.0844102      298.54854      528.96692     -16719.756    
    623000   1.0729268      293.34042     -891.04835     -16824.165    
    624000   1.091527       301.86755      477.25976     -16791.293    
    625000   1.0766207      291.68048     -780.24889     -16889.631    
    626000   1.0744375      300.1946       101.49169     -16738.282    
    627000   1.0813538      299.05633      283.68969     -16861.654    
    628000   1.0695382      298.46639     -503.6253      -16889.86     
    629000   1.0702903      294.5358      -229.22218     -16781.715    
    630000   1.0719599      295.05028     -122.88035     -16938.886    
    631000   1.0808115      289.43908      347.04382     -16883.711    
    632000   1.0774065      291.57538      61.177155     -16848        
    633000   1.0926011      299.39296      350.96653     -16788.297    
    634000   1.0806549      301.25967     -190.5198      -16735.042    
    635000   1.0759053      300.75191     -660.34907     -16776.529    
    636000   1.0848413      297.18517      487.524       -16843.073    
    637000   1.0871276      293.54441      300.51357     -16820.174    
    638000   1.0837743      303.4052       245.72195     -16826.476    
    639000   1.0786867      298.34153     -661.61045     -16770.336    
    640000   1.0890285      298.5059       154.7719      -16935.47     
    641000   1.0828292      299.1049      -944.88852     -16820.632    
    642000   1.0884821      298.81813      5.8903255     -16762.667    
    643000   1.085843       302.39328     -81.615814     -16712.188    
    644000   1.0886797      295.17848     -192.83903     -16889.045    
    645000   1.0757813      290.36104     -948.20517     -16790.514    
    646000   1.090736       292.35232     -869.52635     -16853.414    
    647000   1.085533       288.55209      173.66471     -16861.752    
    648000   1.0969995      294.88281      1288.2032     -16866.2      
    649000   1.075597       301.807        265.54283     -16810.796    
    650000   1.0776487      295.35657      254.09383     -16874.6      
    651000   1.0756224      288.6034      -558.94766     -16926.496    
    652000   1.0800468      298.55917     -202.78883     -16836.587    
    653000   1.0783969      290.89242      689.54521     -16824.376    
    654000   1.0758236      294.17588     -450.94971     -16819.386    
    655000   1.0837193      303.29941     -99.362198     -16852.522    
    656000   1.0962626      302.46803      583.47525     -16867.588    
    657000   1.0870834      309.658        347.24384     -16798.729    
    658000   1.0872699      299.5355      -493.30385     -16837.806    
    659000   1.0786841      307.00875     -537.66587     -16811.668    
    660000   1.0911051      301.27555      12.156188     -16890.926    
    661000   1.0770223      295.84013     -830.50226     -16827.255    
    662000   1.0830743      303.30941     -4.8885198     -16894.378    
    663000   1.0857802      290.07312     -16.418749     -16868.519    
    664000   1.0909611      290.23122     -362.43731     -16924.786    
    665000   1.0746975      293.11828     -1217.7045     -16859.754    
    666000   1.0814788      304.83109     -459.32747     -16805.545    
    667000   1.0694332      299.00767     -200.61394     -16809.258    
    668000   1.0737654      292.77326      515.77708     -16925.388    
    669000   1.0725199      298.55879      141.59308     -16742.254    
    670000   1.0778556      302.22557      582.23412     -16889.695    
    671000   1.0735408      295.8095      -106.94144     -16814.946    
    672000   1.0728336      301.32771      239.52612     -16802.551    
    673000   1.066554       296.76104     -412.7225      -16751.318    
    674000   1.0734353      302.50619     -491.01967     -16686.004    
    675000   1.0761416      293.19099     -719.21907     -16800.356    
    676000   1.0789568      302.91041      621.75396     -16750.313    
    677000   1.0831686      302.4678       615.68243     -16813.383    
    678000   1.0907623      292.65776      518.57813     -16909.601    
    679000   1.0819731      298.99634      866.89964     -16709.757    
    680000   1.1030391      298.37354      139.36863     -16797.915    
    681000   1.074021       295.22931     -795.01095     -16927.53     
    682000   1.0869996      299.43545      757.81883     -16765.155    
    683000   1.0762737      296.13321     -568.50484     -16745.324    
    684000   1.08023        293.57238      345.70413     -16793.487    
    685000   1.0818346      305.4249       76.186622     -16813.034    
    686000   1.0826842      297.56736     -437.20956     -16790.431    
    687000   1.0911821      296.74876      186.61779     -16872.866    
    688000   1.0902398      296.73065      512.29577     -16805.595    
    689000   1.0801726      295.85771     -449.02033     -16777.325    
    690000   1.0843119      299.51717     -192.63163     -16896.827    
    691000   1.0863426      299.93553      579.98941     -16775.213    
    692000   1.0711004      306.35328     -159.28812     -16837.741    
    693000   1.0885602      301.42948      342.6958      -16804.165    
    694000   1.0791079      300.59351      21.470382     -16774.418    
    695000   1.0722269      300.27892     -627.03133     -16853.908    
    696000   1.0910172      304.89225      614.49254     -16909.456    
    697000   1.0817782      299.77703      152.8912      -16825.526    
    698000   1.0807963      298.78713     -28.142781     -16894.675    
    699000   1.0850809      298.67099     -52.059756     -16849.269    
    700000   1.0843175      296.4127       249.15497     -16887.665    
    701000   1.0782274      301.70149     -324.67008     -16758.228    
    702000   1.0782792      290.39191     -914.3156      -16835.36     
    703000   1.0815459      299.20503     -230.33048     -16837.563    
    704000   1.076224       297.39274      87.866073     -16830.706    
    705000   1.0715145      298.79574     -464.81956     -16797.847    
    706000   1.0844866      293.52328      507.46399     -16827.49     
    707000   1.0871521      290.08769      1125.5906     -16884.086    
    708000   1.0780115      300.15676      290.46707     -16828.986    
    709000   1.0785264      298.66009     -126.29911     -16812.241    
    710000   1.0794007      296.15409     -376.81743     -16838.014    
    711000   1.0892489      291.69192      55.856389     -16858.403    
    712000   1.101445       303.03169      355.97287     -16817.58     
    713000   1.0854212      298.35289      287.05302     -16831.765    
    714000   1.0840468      287.96755     -98.168575     -16906.35     
    715000   1.0758461      305.74376      121.87483     -16771.151    
    716000   1.0779332      290.49646      597.11169     -16964.991    
    717000   1.0784039      289.30313      119.82932     -16877.334    
    718000   1.0838787      298.3784      -568.60701     -16844.848    
    719000   1.0885437      292.38315      261.09305     -16864.278    
    720000   1.0892593      287.73035      911.26764     -16967.842    
    721000   1.0630508      286.38508     -521.24943     -16828.52     
    722000   1.0813671      290.84939      26.913038     -16933.431    
    723000   1.0715382      296.17199     -314.091       -16909.414    
    724000   1.0673553      306.81034      760.20169     -16800.417    
    725000   1.0685593      295.24147     -244.87392     -16809.488    
    726000   1.0904474      296.47541      781.88475     -16726.812    
    727000   1.0838526      293.96506      296.53653     -16772.179    
    728000   1.0924295      295.68564     -334.05748     -16867.262    
    729000   1.0898243      299.40918      199.10929     -16763.725    
    730000   1.0648807      294.55537     -1120.3533     -16850.553    
    731000   1.089953       296.90837      327.00557     -16790.163    
    732000   1.0803486      290.60275      66.717136     -16761.172    
    733000   1.0870579      299.06056      420.30068     -16708.35     
    734000   1.0813491      298.5866       437.82396     -16750.435    
    735000   1.0868882      296.65967      655.00833     -16830.126    
    736000   1.0781429      290.985        618.12902     -16839.069    
    737000   1.0774356      296.40589      394.08312     -16842.353    
    738000   1.0731606      290.42353     -462.59558     -16870.134    
    739000   1.0847737      296.99187      1055.3777     -16853.1      
    740000   1.0704569      300.9427       318.17522     -16805.404    
    741000   1.0986399      299.88577      953.84346     -16803.931    
    742000   1.0704174      298.22406     -1318.5569     -16767.481    
    743000   1.0779048      283.34603     -235.83811     -16899.453    
    744000   1.0765558      297.31225      388.80933     -16878.829    
    745000   1.0701394      294.18458      178.81417     -16801.417    
    746000   1.0811235      289.2727      -155.96811     -16947.903    
    747000   1.0875629      290.15034     -68.081604     -16833.294    
    748000   1.0850208      286.76549     -79.676326     -16857.553    
    749000   1.0845158      287.5063      -28.966685     -16918.45     
    750000   1.0845904      299.84589      579.37416     -16838.836    
    751000   1.0719152      300.00212      64.384273     -16830.611    
    752000   1.0790068      298.41674     -371.07218     -16910.582    
    753000   1.072729       300.0993      -228.22605     -16794.254    
    754000   1.06662        295.57587     -7.7039711     -16816.327    
    755000   1.076517       289.34085      670.77199     -16830.049    
    756000   1.0646096      287.53638     -496.72937     -16901.625    
    757000   1.0685687      295.45623      682.51043     -16661.056    
    758000   1.0684833      289.8549       420.44921     -16852.563    
    759000   1.0807995      286.6384      -784.87373     -16917.171    
    760000   1.0929566      294.90851     -92.735695     -16825.222    
    761000   1.0945466      297.02505      253.21622     -16812.025    
    762000   1.0800738      288.57685     -296.24666     -16859.377    
    763000   1.0903223      291.08432     -425.53568     -16899.895    
    764000   1.0853776      295.18197      297.89095     -16867.069    
    765000   1.0825597      302.92706     -673.7249      -16797.832    
    766000   1.0826914      300.00353     -417.07092     -16885.063    
    767000   1.0843974      296.06228     -160.66031     -16773.441    
    768000   1.0833734      300.39044     -337.90565     -16783.901    
    769000   1.0720546      293.89582     -828.03762     -16889.538    
    770000   1.0835613      304.67709     -320.87413     -16828.622    
    771000   1.0693034      294.91522     -445.8737      -16837.894    
    772000   1.0820592      300.123        333.63659     -16826.591    
    773000   1.0728274      287.59463     -390.35727     -16904.195    
    774000   1.0842297      302.34026      588.82002     -16780.504    
    775000   1.0786062      310.91798     -196.33477     -16759.806    
    776000   1.0833336      288.03157     -234.07205     -16815.039    
    777000   1.0812329      296.90423      156.69258     -16878.974    
    778000   1.0804296      293.38742      107.20984     -16867.672    
    779000   1.0850111      295.44216      216.51628     -16817.127    
    780000   1.0769242      302.74007     -471.33282     -16759.511    
    781000   1.0843743      302.78212      46.094618     -16848.787    
    782000   1.0785882      295.75825     -106.90841     -16837.135    
    783000   1.0762969      293.13877      398.13295     -16841.979    
    784000   1.0867165      304.65213      436.14923     -16757.009    
    785000   1.0797292      293.9206      -481.20559     -16795.412    
    786000   1.0801533      298.26732     -137.52957     -16826.547    
    787000   1.0856936      296.1399       209.12331     -16959.574    
    788000   1.0805339      302.30872     -177.88368     -16871.272    
    789000   1.0857705      289.12554      324.82766     -16900.796    
    790000   1.0804974      293.36494      43.507293     -16819.156    
    791000   1.0816265      293.99499      352.45832     -16866.488    
    792000   1.0744469      295.22689     -352.84299     -16841.746    
    793000   1.0945376      290.21198      770.6432      -16898.21     
    794000   1.069834       285.98929     -968.85675     -16855.658    
    795000   1.0806011      298.36967     -64.232242     -16823.319    
    796000   1.0654984      304.34316     -525.42193     -16716.679    
    797000   1.0763311      308.30333      223.45258     -16816.796    
    798000   1.0758242      291.27573      692.27864     -16841.224    
    799000   1.0849486      300.30663      156.92648     -16831.677    
    800000   1.0796672      299.4466      -277.50045     -16767.851    
    801000   1.0808294      299.6125       381.00126     -16836.934    
    802000   1.0773228      299.53474     -171.59756     -16757.59     
    803000   1.0815501      293.74042     -12.009        -16782.983    
    804000   1.0723445      298.78392     -384.34308     -16720.494    
    805000   1.0772925      304.44262      168.59932     -16785.856    
    806000   1.0932604      293.98958      571.75764     -16858.678    
    807000   1.0779683      296.86935      340.27401     -16726.192    
    808000   1.0871845      293.58644     -328.83785     -16826.226    
    809000   1.0910318      293.60215      335.91544     -16805.383    
    810000   1.0768233      313.16794     -603.98081     -16722.895    
    811000   1.0770015      293.01308      64.793225     -16818.322    
    812000   1.0825304      301.29319      292.27352     -16823.064    
    813000   1.0901759      298.60635      177.75993     -16879.203    
    814000   1.0897169      295.39997     -274.47813     -16805.482    
    815000   1.077928       305.29853     -570.17466     -16682.778    
    816000   1.0862085      301.8478       325.30395     -16773.013    
    817000   1.0837366      294.8744      -71.302868     -16797.335    
    818000   1.0795667      294.12811     -229.78954     -16867.235    
    819000   1.0664947      299.14921     -471.62426     -16838.669    
    820000   1.0885616      307.87248      737.8317      -16776.875    
    821000   1.0766394      295.28073     -647.19998     -16785.928    
    822000   1.0750563      294.63433      226.60669     -16833.422    
    823000   1.0793411      293.38162     -216.06138     -16888.821    
    824000   1.086937       301.94315      791.18792     -16765.574    
    825000   1.0745972      301.44849      78.628783     -16791.727    
    826000   1.0703779      301.36402     -45.762158     -16835.906    
    827000   1.0716826      296.29934     -135.78906     -16854.758    
    828000   1.0797811      293.17512      297.49813     -16781.554    
    829000   1.0789846      307.36761     -320.52854     -16694.427    
    830000   1.0782627      291.88259      195.69887     -16865.187    
    831000   1.0784094      302.21104      356.53874     -16812.978    
    832000   1.0785564      293.56835      416.14213     -16833.22     
    833000   1.0839411      311.85935      639.63865     -16759.054    
    834000   1.0822676      302.43414      158.01578     -16797.628    
    835000   1.0798808      287.71671     -202.00942     -16975.187    
    836000   1.0807939      295.17783     -80.36432      -16828.744    
    837000   1.0804186      293.42456     -77.5632       -16835.852    
    838000   1.088827       293.08465      519.46467     -16946.342    
    839000   1.0779381      290.25081     -108.0831      -16917.211    
    840000   1.0843866      298.97201      494.68112     -16852.642    
    841000   1.0794339      296.12333      265.47557     -16839        
    842000   1.0816181      297.84686     -42.552469     -16833.771    
    843000   1.0847459      303.46427     -182.0524      -16773.177    
    844000   1.0828072      295.92425      524.51322     -16801.853    
    845000   1.0733837      299.7237       15.287714     -16789.31     
    846000   1.0827867      296.92665     -67.195763     -16782.442    
    847000   1.0855705      299.24086     -608.54212     -16785.093    
    848000   1.0937622      299.78934      555.04786     -16785.681    
    849000   1.0727156      299.31944     -712.19585     -16797.355    
    850000   1.0855661      295.56261      766.4453      -16867.428    
    851000   1.0786041      295.45918     -27.621643     -16901.507    
    852000   1.0848813      299.88783     -0.98225993    -16885.512    
    853000   1.0794466      302.55998     -282.58338     -16795.305    
    854000   1.0775408      291.8001       27.029846     -16877.99     
    855000   1.0821558      301.34686     -297.59727     -16852.046    
    856000   1.0783659      290.22324      929.17926     -16979.681    
    857000   1.0603829      308.11405     -156.19958     -16761.325    
    858000   1.0794603      301.75002     -330.5304      -16816.493    
    859000   1.0865795      300.79827      1012.8673     -16820.48     
    860000   1.0696199      296.80798     -819.16437     -16860.295    
    861000   1.0820136      295.22664     -25.168709     -16843.66     
    862000   1.0782478      300.193        534.32156     -16785.912    
    863000   1.0769959      296.86471     -43.951985     -16837.45     
    864000   1.0768754      289.95644      261.30537     -16778.568    
    865000   1.0874684      299.87178     -235.98886     -16781.245    
    866000   1.0768206      294.14304      343.90639     -16800.661    
    867000   1.0804955      299.36905     -315.75865     -16752.977    
    868000   1.077541       294.24928     -51.14061      -16827.317    
    869000   1.0717593      291.45087     -416.55576     -16816.759    
    870000   1.0817984      296.48444      57.23885      -16761.984    
    871000   1.0944906      297.85422      203.44829     -16788.752    
    872000   1.078909       300.45387      310.57539     -16806.918    
    873000   1.065603       297.77431     -33.379602     -16785.309    
    874000   1.080866       296.93523      215.58394     -16855.916    
    875000   1.0787855      298.44708      230.20658     -16787.489    
    876000   1.079198       295.50653     -49.207727     -16847.711    
    877000   1.0694127      289.22759     -45.464876     -16883.603    
    878000   1.0695662      301.02055      420.88101     -16759.379    
    879000   1.0897396      289.02746     -44.889993     -16851.289    
    880000   1.0773141      291.3972      -478.94586     -16865.857    
    881000   1.0929115      291.93883      727.83784     -16810.667    
    882000   1.0662451      295.84068      180.2651      -16813.265    
    883000   1.0793286      294.01961      209.29979     -16867.327    
[...]
  10291000   1.0803129      299.78956      717.87688     -15756.194    
  10292000   1.0803129      300.56818     -189.59571     -15656        
  10293000   1.0803129      300.13618      696.28383     -15788.434    
  10294000   1.0803129      302.9822      -64.014034     -15780.778    
  10295000   1.0803129      294.75279     -36.80594      -15817.87     
  10296000   1.0803129      307.92779      643.9058      -15652.715    
  10297000   1.0803129      291.77301     -266.38857     -15941.194    
  10298000   1.0803129      301.70251     -492.55596     -15788.605    
  10299000   1.0803129      285.91024     -103.98905     -15950.826    
  10300000   1.0803129      296.37895     -105.73106     -15771.137    
  10301000   1.0803129      303.07408     -568.18062     -15732.388    
  10302000   1.0803129      296.42562     -372.8267      -15862.885    
  10303000   1.0803129      307.37855     -519.0115      -15709.738    
  10304000   1.0803129      298.92335     -277.52228     -15769.259    
  10305000   1.0803129      287.86663      448.38601     -15763.577    
  10306000   1.0803129      300.72857     -65.565601     -15782.479    
  10307000   1.0803129      302.68666      1.8748648     -15791.386    
  10308000   1.0803129      300.63098     -426.36327     -15819.12     
  10309000   1.0803129      305.95298      206.7093      -15667.737    
  10310000   1.0803129      302.07655      551.21409     -15797.021    
  10311000   1.0803129      300.46206      603.03615     -15723.606    
  10312000   1.0803129      305.09387      443.72143     -15789.308    
  10313000   1.0803129      300.55661      439.78133     -15808.047    
  10314000   1.0803129      299.81596      571.73935     -15746.456    
  10315000   1.0803129      300.54374     -232.21476     -15805.529    
  10316000   1.0803129      305.56024      166.93065     -15823.106    
  10317000   1.0803129      295.82937      270.36918     -15831.348    
  10318000   1.0803129      290.35203      386.19472     -15896.813    
  10319000   1.0803129      303.0306       243.85381     -15800.098    
  10320000   1.0803129      294.35459      328.22984     -15883.735    
  10321000   1.0803129      303.2642       298.20686     -15774.472    
  10322000   1.0803129      293.22591     -346.8649      -15901.179    
  10323000   1.0803129      295.9547       241.49902     -15895.284    
  10324000   1.0803129      290.27644      526.63631     -15851.509    
  10325000   1.0803129      293.97781     -186.45317     -15889.774    
  10326000   1.0803129      285.86096     -710.99131     -15866.369    
  10327000   1.0803129      298.70631     -619.26423     -15759.546    
  10328000   1.0803129      291.63742     -246.42374     -15865.715    
  10329000   1.0803129      298.00356      516.25021     -15849.745    
  10330000   1.0803129      298.37197      280.4919      -15810.818    
  10331000   1.0803129      300.26935      136.50975     -15763.741    
  10332000   1.0803129      304.27625      519.37482     -15776.852    
  10333000   1.0803129      305.40586      177.81563     -15789.654    
  10334000   1.0803129      303.20998     -666.21587     -15720.736    
  10335000   1.0803129      294.95253     -11.820378     -15786.26     
  10336000   1.0803129      304.43221      558.52866     -15749.197    
  10337000   1.0803129      293.54666      487.80059     -15760.22     
  10338000   1.0803129      294.784       -18.190975     -15853.434    
  10339000   1.0803129      294.848       -566.29943     -15827.008    
  10340000   1.0803129      302.41251     -231.0629      -15749.824    
  10341000   1.0803129      298.41911     -34.4433       -15706.35     
  10342000   1.0803129      293.40594     -288.42141     -15800.041    
  10343000   1.0803129      300.16815      896.40495     -15797.437    
  10344000   1.0803129      300.98492     -69.481286     -15833.243    
  10345000   1.0803129      301.00909      152.81435     -15814.074    
  10346000   1.0803129      296.97178     -19.681742     -15850.757    
  10347000   1.0803129      301.26924     -263.38036     -15745.912    
  10348000   1.0803129      297.46226     -109.86689     -15847.665    
  10349000   1.0803129      297.33411      279.89622     -15834.145    
  10350000   1.0803129      306.68018     -90.597432     -15719.527    
  10351000   1.0803129      306.69041      360.42973     -15874.798    
  10352000   1.0803129      297.75739     -234.14333     -15811.006    
  10353000   1.0803129      298.51405      428.92414     -15811.945    
  10354000   1.0803129      299.33023      318.60692     -15911.666    
  10355000   1.0803129      286.57005      237.24936     -15829.978    
  10356000   1.0803129      299.59192      161.8206      -15773.054    
  10357000   1.0803129      304.4096       283.74022     -15764.443    
  10358000   1.0803129      302.77373      342.50835     -15804.638    
  10359000   1.0803129      303.56723      353.81387     -15797.332    
  10360000   1.0803129      306.50223     -478.49895     -15725.603    
  10361000   1.0803129      301.66224     -476.09549     -15772.196    
  10362000   1.0803129      297.76758     -284.0634      -15786.929    
  10363000   1.0803129      305.76675      215.61014     -15767.285    
  10364000   1.0803129      285.80472     -205.9189      -15881.006    
  10365000   1.0803129      288.27059     -302.4476      -15946.408    
  10366000   1.0803129      294.03254     -978.58035     -15816.848    
  10367000   1.0803129      291.99998     -805.69856     -15845.459    
  10368000   1.0803129      295.2494       212.21486     -15782.188    
  10369000   1.0803129      301.69311      1173.9746     -15779.169    
  10370000   1.0803129      293.82595     -539.46016     -15844.181    
  10371000   1.0803129      296.57609      212.62371     -15794.574    
  10372000   1.0803129      300.53752     -87.517546     -15856.89     
  10373000   1.0803129      304.37579      917.65796     -15714.671    
  10374000   1.0803129      301.90612     -303.71327     -15806.129    
  10375000   1.0803129      300.45304      534.3512      -15788.291    
  10376000   1.0803129      302.02773      457.26914     -15858.37     
  10377000   1.0803129      307.01482      892.13718     -15684.171    
  10378000   1.0803129      301.07681      336.10128     -15715.405    
  10379000   1.0803129      308.51606      340.51137     -15794.414    
  10380000   1.0803129      294.96721      612.34971     -15807.431    
  10381000   1.0803129      294.77422      253.53711     -15791.302    
  10382000   1.0803129      299.16315     -355.52285     -15795.086    
  10383000   1.0803129      297.88522      326.36709     -15751.567    
  10384000   1.0803129      299.8112      -633.55363     -15757.992    
  10385000   1.0803129      297.35528      147.84609     -15884.276    
  10386000   1.0803129      282.72203      431.67809     -15899.296    
  10387000   1.0803129      302.13893     -1.9124069     -15715.286    
  10388000   1.0803129      303.36326     -137.88836     -15794.512    
  10389000   1.0803129      299.76222      108.97544     -15785.599    
  10390000   1.0803129      290.013       -187.24402     -15889.911    
  10391000   1.0803129      291.33415      256.41724     -15767.16     
  10392000   1.0803129      297.08242     -247.07018     -15839.068    
  10393000   1.0803129      299.49647     -224.30447     -15726.887    
  10394000   1.0803129      307.0047      -315.82675     -15749.462    
  10395000   1.0803129      293.1511       247.2846      -15878.54     
  10396000   1.0803129      302.70766     -129.25812     -15771.594    
  10397000   1.0803129      294.87729      815.13088     -15830.86     
  10398000   1.0803129      303.63504      222.29679     -15823.265    
  10399000   1.0803129      300.29406      327.68242     -15791.92     
  10400000   1.0803129      293.60149      338.79704     -15778.613    
  10401000   1.0803129      299.62838      236.64728     -15803.146    
  10402000   1.0803129      308.46684      77.332815     -15778.525    
  10403000   1.0803129      299.64053      1277.2037     -15775.109    
  10404000   1.0803129      299.53134      28.290923     -15819.714    
  10405000   1.0803129      302.50913      152.92889     -15863.418    
  10406000   1.0803129      290.3472       702.15605     -15846.798    
  10407000   1.0803129      299.50094      108.16358     -15969.609    
  10408000   1.0803129      291.96222     -578.54015     -15847.928    
  10409000   1.0803129      292.82054      118.11079     -16031.75     
  10410000   1.0803129      302.28471      238.02981     -15835.828    
  10411000   1.0803129      292.01208     -77.068693     -15888.011    
  10412000   1.0803129      301.09096     -66.03352      -15739.244    
  10413000   1.0803129      296.28984      270.04085     -15839.359    
  10414000   1.0803129      292.22858      196.8272      -15814.098    
  10415000   1.0803129      310.2674      -942.04351     -15755.578    
  10416000   1.0803129      304.39116     -366.03003     -15787.398    
  10417000   1.0803129      301.79004      108.70023     -15841.609    
  10418000   1.0803129      302.00489      98.810999     -15832.947    
  10419000   1.0803129      294.70498     -165.34772     -15816.962    
  10420000   1.0803129      295.6248       234.3402      -15837.829    
  10421000   1.0803129      285.17367      102.54072     -15914.358    
  10422000   1.0803129      301.14479     -213.74966     -15777.821    
  10423000   1.0803129      285.03852      124.05415     -15976.217    
  10424000   1.0803129      295.8954      -53.820958     -15830.71     
  10425000   1.0803129      291.88377      458.77479     -15810.269    
  10426000   1.0803129      298.41974      386.06716     -15825.967    
  10427000   1.0803129      298.86952     -259.79949     -15670.82     
  10428000   1.0803129      294.13127      32.819465     -15875.363    
  10429000   1.0803129      297.93019     -160.59595     -15747.12     
  10430000   1.0803129      285.70924      382.20195     -15963.676    
  10431000   1.0803129      293.92883      143.59103     -15807.539    
  10432000   1.0803129      299.55178      291.15619     -15764.845    
  10433000   1.0803129      288.91881      77.999891     -15897.57     
  10434000   1.0803129      299.60027      275.84039     -15805.286    
  10435000   1.0803129      294.93161      32.205036     -15853.38     
  10436000   1.0803129      292.27385      408.83136     -15764.842    
  10437000   1.0803129      298.10587      234.50009     -15808.332    
  10438000   1.0803129      297.97753     -669.03075     -15786.389    
  10439000   1.0803129      298.83864     -542.47032     -15822.97     
  10440000   1.0803129      306.14222     -96.033168     -15819.798    
  10441000   1.0803129      306.4675       759.2988      -15785.721    
  10442000   1.0803129      292.62993     -432.66213     -15847.872    
  10443000   1.0803129      293.11393      638.52689     -15789.355    
  10444000   1.0803129      292.16361     -609.74183     -15782.707    
  10445000   1.0803129      301.06276      310.91734     -15749.446    
  10446000   1.0803129      300.52177     -90.788887     -15702.887    
  10447000   1.0803129      297.6664       1091.1645     -15791.055    
  10448000   1.0803129      299.30029      474.45335     -15784.353    
  10449000   1.0803129      300.05469      345.45296     -15791.097    
  10450000   1.0803129      298.83268      170.32839     -15792.896    
  10451000   1.0803129      312.15742      152.46727     -15735.821    
  10452000   1.0803129      291.4791      -221.39545     -15820.301    
  10453000   1.0803129      300.12006      37.342031     -15759.235    
  10454000   1.0803129      302.12607     -298.02045     -15784.685    
  10455000   1.0803129      296.12503      57.071962     -15900.261    
  10456000   1.0803129      303.20471      118.65382     -15782.031    
  10457000   1.0803129      307.95335      739.58094     -15698.508    
  10458000   1.0803129      297.65632      569.648       -15835.298    
  10459000   1.0803129      298.09209     -80.751179     -15731.272    
  10460000   1.0803129      288.79456      664.06497     -15741.75     
  10461000   1.0803129      295.71097     -56.749342     -15749.671    
  10462000   1.0803129      295.53461     -604.89097     -15880.466    
  10463000   1.0803129      292.51859      50.659151     -15794.385    
  10464000   1.0803129      296.56553     -69.256755     -15886.049    
  10465000   1.0803129      290.05883     -546.95716     -15943.458    
  10466000   1.0803129      301.42468     -697.63369     -15818.716    
  10467000   1.0803129      295.11057     -696.3011      -15884.174    
  10468000   1.0803129      288.99666     -408.38363     -15913.397    
  10469000   1.0803129      303.95545      310.2033      -15733.443    
  10470000   1.0803129      298.9193      -157.11928     -15697.889    
  10471000   1.0803129      297.47721     -741.92498     -15878.312    
  10472000   1.0803129      306.40971      58.400616     -15758.238    
  10473000   1.0803129      298.02265     -95.668979     -15790.721    
  10474000   1.0803129      293.84457      397.24498     -15864.78     
  10475000   1.0803129      300.11506     -223.3809      -15755.286    
  10476000   1.0803129      300.21592     -166.613       -15915.92     
  10477000   1.0803129      299.9761       626.90327     -15778.955    
  10478000   1.0803129      303.9059      -24.031559     -15723.181    
  10479000   1.0803129      291.75544     -689.94914     -15846.94     
  10480000   1.0803129      295.34381      384.09088     -15817.389    
  10481000   1.0803129      294.177       -336.18178     -15772.194    
  10482000   1.0803129      289.90198      315.48218     -15858.048    
  10483000   1.0803129      294.73993      523.36022     -15772.612    
  10484000   1.0803129      305.85483     -203.53219     -15642.714    
  10485000   1.0803129      284.5096       520.60065     -15829.773    
  10486000   1.0803129      296.86092      249.29424     -15822.437    
  10487000   1.0803129      306.1693       747.57406     -15697.201    
  10488000   1.0803129      296.09422     -50.591143     -15810.768    
  10489000   1.0803129      291.11057     -364.12702     -15901.302    
  10490000   1.0803129      307.01388      1062.2171     -15732.81     
  10491000   1.0803129      300.5734       854.83795     -15714.42     
  10492000   1.0803129      294.92953     -617.8346      -15844.484    
  10493000   1.0803129      297.73738      203.70873     -15880.23     
  10494000   1.0803129      300.31934      72.587719     -15886.417    
  10495000   1.0803129      296.08136      256.22508     -15849.866    
  10496000   1.0803129      301.11432     -286.24916     -15841.503    
  10497000   1.0803129      289.93941     -859.43401     -15920.59     
  10498000   1.0803129      304.64173      681.45742     -15851.876    
  10499000   1.0803129      304.37982     -110.2687      -15848.857    
  10500000   1.0803129      288.13402      385.13938     -15905.084    
  10501000   1.0803129      295.06327      689.34045     -15955.718    
  10502000   1.0803129      308.49863     -55.811463     -15812.234    
  10503000   1.0803129      299.7726      -7.176197      -15815.105    
  10504000   1.0803129      298.49752     -237.89655     -15910.092    
  10505000   1.0803129      300.27688      324.97397     -15750.871    
  10506000   1.0803129      295.7687       100.57198     -15837.251    
  10507000   1.0803129      290.33581      783.52335     -15862.983    
  10508000   1.0803129      294.85197      513.97887     -15862.776    
  10509000   1.0803129      291.9142      -207.93042     -15822.586    
  10510000   1.0803129      314.93801     -20.085228     -15665.423    
  10511000   1.0803129      300.89196     -52.034089     -15882.831    
  10512000   1.0803129      297.07967     -164.54574     -15819.202    
  10513000   1.0803129      293.23149      70.044642     -15799.643    
  10514000   1.0803129      296.89883     -701.3188      -15823.278    
  10515000   1.0803129      292.38532      323.61227     -15828.815    
  10516000   1.0803129      302.1601       219.55532     -15823.017    
  10517000   1.0803129      296.89557      388.94413     -15835.557    
  10518000   1.0803129      302.62362      593.1979      -15820.881    
  10519000   1.0803129      305.29702      250.03166     -15800.753    
  10520000   1.0803129      309.20515      757.05546     -15762.446    
  10521000   1.0803129      300.67481     -166.61136     -15814.729    
  10522000   1.0803129      304.80304     -502.1004      -15793.448    
  10523000   1.0803129      293.30517     -519.17359     -15870.043    
  10524000   1.0803129      302.772        70.085792     -15769.455    
  10525000   1.0803129      301.1025       65.357047     -15786.65     
  10526000   1.0803129      287.19874      138.83333     -15913.66     
  10527000   1.0803129      285.45103     -568.34483     -15872.023    
  10528000   1.0803129      292.04519      167.26249     -15861.095    
  10529000   1.0803129      299.40274     -183.21327     -15848.921    
  10530000   1.0803129      292.28757      670.04258     -15923.08     
  10531000   1.0803129      303.73036      98.967504     -15752.565    
  10532000   1.0803129      300.50908      319.75324     -15791.634    
  10533000   1.0803129      299.11302      633.29912     -15859.412    
  10534000   1.0803129      290.97893      301.21207     -15904.54     
  10535000   1.0803129      293.83566     -184.88621     -15804.961    
  10536000   1.0803129      296.11717      164.2984      -15805.34     
  10537000   1.0803129      303.41683      249.33827     -15714.547    
  10538000   1.0803129      288.05592      430.86856     -15947.632    
  10539000   1.0803129      286.93136      865.04989     -15928.722    
  10540000   1.0803129      307.49652     -378.29508     -15711.868    
  10541000   1.0803129      288.61838      163.8152      -15845.188    
  10542000   1.0803129      293.50405      535.25541     -15850.847    
  10543000   1.0803129      294.84302      601.48242     -15800.043    
  10544000   1.0803129      298.72939     -417.97396     -15878.387    
  10545000   1.0803129      302.41572     -992.47551     -15783.202    
  10546000   1.0803129      301.08596      333.85564     -15762.945    
  10547000   1.0803129      292.66608     -11.728329     -15901.405    
  10548000   1.0803129      301.22284      309.01773     -15872.55     
  10549000   1.0803129      302.03531      88.651848     -15820.736    
  10550000   1.0803129      298.03769     -559.34387     -15800.873    
Loop time of 3837.77 on 12 procs for 500000 steps with 3162 atoms

Performance: 11.257 ns/day, 2.132 hours/ns, 130.284 timesteps/s
95.1% CPU use with 12 MPI tasks x no OpenMP threads

MPI task timing breakdown:
Section |  min time  |  avg time  |  max time  |%varavg| %total
---------------------------------------------------------------
Pair    | 1996.4     | 2161.7     | 2285.9     | 180.5 | 56.33
Bond    | 8.9108     | 9.2263     | 10.14      |  10.8 |  0.24
Kspace  | 728.83     | 851.17     | 1015.4     | 285.1 | 22.18
Neigh   | 261.06     | 261.16     | 261.29     |   0.4 |  6.81
Comm    | 106.05     | 109.56     | 111.57     |  18.6 |  2.85
Output  | 3.5645     | 3.5704     | 3.6257     |   0.9 |  0.09
Modify  | 424.06     | 424.49     | 424.91     |   1.3 | 11.06
Other   |            | 16.86      |            |       |  0.44

Nlocal:          263.5 ave         274 max         250 min
Histogram: 1 0 1 2 1 2 2 0 0 3
Nghost:           5561 ave        5604 max        5503 min
Histogram: 1 1 1 1 1 1 0 3 1 2
Neighs:         105787 ave      112127 max       99849 min
Histogram: 2 1 2 0 1 1 2 1 0 2

Total # of neighbors = 1269442
Ave neighs/atom = 401.46806
Ave special neighs/atom = 2.0341556
Neighbor list builds = 60387
Dangerous builds = 0
