LAMMPS (23 Jun 2022 - Update 1)
Reading data file ...
  orthogonal box = (0 0 0) to (31.689281 31.689281 31.689281)
  3 by 2 by 4 MPI processor grid
  reading atoms ...
  3162 atoms
  scanning bonds ...
  4 = max bonds/atom
  scanning angles ...
  6 = max angles/atom
  reading bonds ...
  2108 bonds
  reading angles ...
  1108 angles
Finding 1-2 1-3 1-4 neighbors ...
  special bond factors lj:    0        0        0       
  special bond factors coul:  0        0        0       
     4 = max # of 1-2 neighbors
     3 = max # of 1-3 neighbors
     3 = max # of 1-4 neighbors
     4 = max # of special neighbors
  special bonds CPU = 0.001 seconds
  read_data CPU = 0.016 seconds
Setting atom values ...
  1000 settings made for charge
Setting atom values ...
  2000 settings made for charge
Setting atom values ...
  36 settings made for charge
Setting atom values ...
  36 settings made for charge
Setting atom values ...
  18 settings made for charge
Setting atom values ...
  72 settings made for charge
1000 atoms in group wat
36 atoms in group Li
18 atoms in group S
  create bodies CPU = 0.000 seconds
  1054 rigid bodies with 3162 atoms
  1.4900082 = max distance from body owner to body atom
PPPM initialization ...
  extracting TIP4P info from pair style
  using 12-bit tables for long-range coulomb (../kspace.cpp:342)
  G vector (1/distance) = 0.31119582
  grid = 30 30 30
  stencil order = 5
  estimated absolute RMS force accuracy = 0.0035544154
  estimated relative force accuracy = 1.0704016e-05
  using double precision KISS FFT
  3d grid and FFT values/proc = 5610 1800
Generated 0 of 15 mixed pair_coeff terms from arithmetic mixing rule
Neighbor list info ...
  update every 1 steps, delay 0 steps, check yes
  max neighbors/atom: 2000, page size: 100000
  master list distance cutoff = 12.3092
  ghost atom cutoff = 12.3092
  binsize = 6.1546, bins = 6 6 6
  1 neighbor lists, perpetual/occasional/extra = 1 0 0
  (1) pair lj/cut/tip4p/long, perpetual
      attributes: half, newton on
      pair build: half/bin/newton
      stencil: half/bin/3d
      bin: standard
Setting up Verlet run ...
  Unit style    : real
  Current step  : 0
  Time step     : 0.001
Per MPI rank memory allocation (min/avg/max) = 15.57 | 15.61 | 15.64 Mbytes
   Step        Density          Temp          Press          TotEng    
         0   1.0433267      299.37961     -7385471.4      5954.8674    
      1000   1.0427515      318.71334      73269.634      5935.7093    
      2000   1.0407531      374.08116      70829.932      5867.4458    
      3000   1.0373854      461.00328      66560.558      5743.2191    
      4000   1.032742       571.18756      60370.507      5547.0398    
      5000   1.0269588      696.75009      52805.6        5277.298     
      6000   1.0202009      831.83954      45599.507      4949.8312    
      7000   1.0126357      967.15699      38617.997      4561.3417    
      8000   1.0044321      1095.2792      30962.047      4119.2748    
      9000   0.99577069     1208.2372      24184.001      3623.7506    
     10000   0.98681963     1301.6719      18173.946      3089.9865    
Loop time of 32.3744 on 24 procs for 10000 steps with 3162 atoms

Performance: 0.027 ns/day, 899.289 hours/ns, 308.886 timesteps/s
99.3% CPU use with 24 MPI tasks x no OpenMP threads

MPI task timing breakdown:
Section |  min time  |  avg time  |  max time  |%varavg| %total
---------------------------------------------------------------
Pair    | 12.884     | 15.289     | 17.691     |  31.3 | 47.23
Bond    | 0.05238    | 0.058459   | 0.064587   |   1.6 |  0.18
Kspace  | 5.7376     | 8.1417     | 10.551     |  43.0 | 25.15
Neigh   | 0.0030086  | 0.0030284  | 0.0030599  |   0.0 |  0.01
Comm    | 1.2393     | 1.2792     | 1.3376     |   2.2 |  3.95
Output  | 0.00052104 | 0.0005436  | 0.00096098 |   0.0 |  0.00
Modify  | 5.9244     | 6.4339     | 7.3642     |  20.4 | 19.87
Other   |            | 1.168      |            |       |  3.61

Nlocal:         131.75 ave         142 max         119 min
Histogram: 2 0 1 3 5 2 3 3 2 3
Nghost:        4337.54 ave        4428 max        4189 min
Histogram: 4 3 1 0 0 0 0 1 7 8
Neighs:        48811.3 ave       55141 max       42724 min
Histogram: 2 2 2 2 3 6 2 1 2 2

Total # of neighbors = 1171472
Ave neighs/atom = 370.4845
Ave special neighs/atom = 2.0341556
Neighbor list builds = 2
Dangerous builds = 0
PPPM initialization ...
  extracting TIP4P info from pair style
  using 12-bit tables for long-range coulomb (../kspace.cpp:342)
  G vector (1/distance) = 0.30985844
  grid = 30 30 30
  stencil order = 5
  estimated absolute RMS force accuracy = 0.0037564702
  estimated relative force accuracy = 1.1312498e-05
  using double precision KISS FFT
  3d grid and FFT values/proc = 5610 1800
Generated 0 of 15 mixed pair_coeff terms from arithmetic mixing rule
Setting up Verlet run ...
  Unit style    : real
  Current step  : 10000
  Time step     : 0.01
Per MPI rank memory allocation (min/avg/max) = 15.57 | 15.61 | 15.64 Mbytes
   Step        Density          Temp          Press          TotEng    
     10000   0.98681963     1301.6719      6607.0336      3089.9879    
     11000   0.90549511     1200.4783     -7682.7661     -2057.9197    
     12000   0.8580066      881.00041     -10425.435     -4772.7097    
     13000   0.8380159      737.41557     -10292.227     -6544.1017    
     14000   0.83932315     620.7246      -9413.1786     -7839.6618    
     15000   0.85816219     559.2574      -7496.6209     -8881.099     
     16000   0.89035601     509.77914     -4945.1187     -9752.064     
     17000   0.93036422     493.46209     -3116.5181     -10484.827    
     18000   0.97268713     471.51922      6.8343114     -11110.812    
     19000   1.0110566      454.91125      2213.0951     -11600.157    
     20000   1.0420401      447.85609      2675.7523     -12055.149    
Loop time of 29.8711 on 24 procs for 10000 steps with 3162 atoms

Performance: 0.289 ns/day, 82.975 hours/ns, 334.772 timesteps/s
99.3% CPU use with 24 MPI tasks x no OpenMP threads

MPI task timing breakdown:
Section |  min time  |  avg time  |  max time  |%varavg| %total
---------------------------------------------------------------
Pair    | 11.949     | 13.854     | 16.052     |  29.8 | 46.38
Bond    | 0.052814   | 0.058367   | 0.065708   |   1.5 |  0.20
Kspace  | 5.5959     | 7.7805     | 9.6819     |  39.6 | 26.05
Neigh   | 0.019555   | 0.019754   | 0.019942   |   0.1 |  0.07
Comm    | 1.0869     | 1.1187     | 1.1524     |   1.8 |  3.75
Output  | 0.00047429 | 0.00049264 | 0.00077006 |   0.0 |  0.00
Modify  | 5.4845     | 5.9366     | 6.8793     |  21.5 | 19.87
Other   |            | 1.103      |            |       |  3.69

Nlocal:         131.75 ave         145 max         122 min
Histogram: 2 3 2 7 1 4 1 1 0 3
Nghost:        4427.71 ave        4490 max        4326 min
Histogram: 6 2 0 0 0 0 0 4 4 8
Neighs:        49991.7 ave       57816 max       44264 min
Histogram: 2 2 5 3 3 4 2 0 1 2

Total # of neighbors = 1199801
Ave neighs/atom = 379.44371
Ave special neighs/atom = 2.0341556
Neighbor list builds = 14
Dangerous builds = 0
PPPM initialization ...
  extracting TIP4P info from pair style
  using 12-bit tables for long-range coulomb (../kspace.cpp:342)
  G vector (1/distance) = 0.31116627
  grid = 30 30 30
  stencil order = 5
  estimated absolute RMS force accuracy = 0.00355877
  estimated relative force accuracy = 1.071713e-05
  using double precision KISS FFT
  3d grid and FFT values/proc = 5610 1800
Generated 0 of 15 mixed pair_coeff terms from arithmetic mixing rule
Setting up Verlet run ...
  Unit style    : real
  Current step  : 20000
  Time step     : 0.1
Per MPI rank memory allocation (min/avg/max) = 15.57 | 15.61 | 15.64 Mbytes
   Step        Density          Temp          Press          TotEng    
     20000   1.0420401      447.85609      178.87225     -12055.143    
     21000   1.1313354      327.13956     -652.8201      -15080.958    
     22000   1.1382261      295.49713      484.65186     -15989.325    
     23000   1.1273218      291.34877      1035.0162     -16206.994    
     24000   1.1086113      297.16277     -626.79024     -16359.901    
     25000   1.1026126      300.05947      186.41962     -16388.995    
     26000   1.0982131      297.29557     -78.814559     -16480.74     
     27000   1.0982384      292.35297      11.668145     -16486.336    
     28000   1.0797134      301.75516     -813.20782     -16378.937    
     29000   1.0925437      301.44209     -428.29803     -16505.86     
     30000   1.0922492      293.84714      61.409024     -16570.168    
Loop time of 35.5326 on 24 procs for 10000 steps with 3162 atoms

Performance: 2.432 ns/day, 9.870 hours/ns, 281.432 timesteps/s
99.3% CPU use with 24 MPI tasks x no OpenMP threads

MPI task timing breakdown:
Section |  min time  |  avg time  |  max time  |%varavg| %total
---------------------------------------------------------------
Pair    | 15.267     | 17.088     | 18.819     |  22.1 | 48.09
Bond    | 0.051658   | 0.059277   | 0.065633   |   1.3 |  0.17
Kspace  | 7.0003     | 8.727      | 10.551     |  30.9 | 24.56
Neigh   | 0.1509     | 0.15158    | 0.15242    |   0.1 |  0.43
Comm    | 1.3472     | 1.3669     | 1.4087     |   1.4 |  3.85
Output  | 0.00043948 | 0.00045562 | 0.00073686 |   0.0 |  0.00
Modify  | 6.3685     | 6.8596     | 7.8171     |  20.5 | 19.31
Other   |            | 1.279      |            |       |  3.60

Nlocal:         131.75 ave         150 max         115 min
Histogram: 2 0 5 2 4 3 5 0 2 1
Nghost:        4621.21 ave        4667 max        4568 min
Histogram: 2 2 1 1 4 3 3 5 1 2
Neighs:          53407 ave       60895 max       44966 min
Histogram: 1 1 2 3 4 4 3 1 4 1

Total # of neighbors = 1281768
Ave neighs/atom = 405.36622
Ave special neighs/atom = 2.0341556
Neighbor list builds = 94
Dangerous builds = 0
PPPM initialization ...
  extracting TIP4P info from pair style
  using 12-bit tables for long-range coulomb (../kspace.cpp:342)
  G vector (1/distance) = 0.31229031
  grid = 30 30 30
  stencil order = 5
  estimated absolute RMS force accuracy = 0.0033965353
  estimated relative force accuracy = 1.0228565e-05
  using double precision KISS FFT
  3d grid and FFT values/proc = 5610 1800
Generated 0 of 15 mixed pair_coeff terms from arithmetic mixing rule
Setting up Verlet run ...
  Unit style    : real
  Current step  : 30000
  Time step     : 0.2
Per MPI rank memory allocation (min/avg/max) = 15.57 | 15.61 | 15.65 Mbytes
   Step        Density          Temp          Press          TotEng    
     30000   1.0922492      293.84714      2748.1975     -16570.164    
     31000   1.0947924      291.99525     -508.81325     -16665.003    
     32000   1.0951146      291.69191     -447.59339     -16689.185    
     33000   1.0849224      308.78141     -471.68993     -16578.581    
     34000   1.080377       292.59206      1326.388      -16696.798    
     35000   1.0751459      296.93751      106.88378     -16669.588    
     36000   1.0753252      303.29397     -276.10043     -16595.87     
     37000   1.0840723      292.28064     -83.993881     -16745.989    
     38000   1.0915893      298.12329      48.222522     -16706.105    
     39000   1.0801964      308.73379     -547.09851     -16626.034    
     40000   1.0847076      299.18454     -928.41836     -16717.445    
Loop time of 35.076 on 24 procs for 10000 steps with 3162 atoms

Performance: 4.926 ns/day, 4.872 hours/ns, 285.095 timesteps/s
99.3% CPU use with 24 MPI tasks x no OpenMP threads

MPI task timing breakdown:
Section |  min time  |  avg time  |  max time  |%varavg| %total
---------------------------------------------------------------
Pair    | 15.41      | 17.057     | 18.785     |  18.9 | 48.63
Bond    | 0.053671   | 0.059115   | 0.064069   |   0.9 |  0.17
Kspace  | 6.4585     | 8.1859     | 9.8344     |  27.2 | 23.34
Neigh   | 0.32269    | 0.32458    | 0.32729    |   0.2 |  0.93
Comm    | 1.3052     | 1.3193     | 1.3358     |   0.7 |  3.76
Output  | 0.00042766 | 0.00044872 | 0.00071645 |   0.0 |  0.00
Modify  | 6.4124     | 6.8789     | 7.8312     |  20.3 | 19.61
Other   |            | 1.251      |            |       |  3.57

Nlocal:         131.75 ave         148 max         116 min
Histogram: 1 0 4 3 3 5 6 0 1 1
Nghost:        4606.04 ave        4647 max        4569 min
Histogram: 2 0 3 3 4 7 1 1 2 1
Neighs:        53113.8 ave       59670 max       46882 min
Histogram: 3 0 3 3 2 4 5 2 1 1

Total # of neighbors = 1274732
Ave neighs/atom = 403.14105
Ave special neighs/atom = 2.0341556
Neighbor list builds = 206
Dangerous builds = 0
PPPM initialization ...
  extracting TIP4P info from pair style
  using 12-bit tables for long-range coulomb (../kspace.cpp:342)
  G vector (1/distance) = 0.31212519
  grid = 30 30 30
  stencil order = 5
  estimated absolute RMS force accuracy = 0.0034199341
  estimated relative force accuracy = 1.029903e-05
  using double precision KISS FFT
  3d grid and FFT values/proc = 5610 1800
Generated 0 of 15 mixed pair_coeff terms from arithmetic mixing rule
Setting up Verlet run ...
  Unit style    : real
  Current step  : 40000
  Time step     : 0.5
Per MPI rank memory allocation (min/avg/max) = 15.57 | 15.61 | 15.65 Mbytes
   Step        Density          Temp          Press          TotEng    
     40000   1.0847076      299.18454     -1213.0659     -16717.445    
     41000   1.0740538      301.77565     -848.6336      -16659.086    
     42000   1.0780738      299.28586     -717.81013     -16721.454    
     43000   1.0856486      293.70645      423.98767     -16757.474    
     44000   1.0774742      294.58707      25.242112     -16759.784    
     45000   1.0820555      296.31654      458.78572     -16645.017    
     46000   1.0789235      299.53202     -426.42768     -16675.143    
     47000   1.0872148      296.42741      144.29948     -16776.888    
     48000   1.0800508      304.48871      993.05198     -16719.049    
     49000   1.0779316      314.59604      731.73988     -16588.873    
     50000   1.0689802      291.81419     -342.27934     -16830.523    
Loop time of 35.8127 on 24 procs for 10000 steps with 3162 atoms

Performance: 12.063 ns/day, 1.990 hours/ns, 279.230 timesteps/s
99.3% CPU use with 24 MPI tasks x no OpenMP threads

MPI task timing breakdown:
Section |  min time  |  avg time  |  max time  |%varavg| %total
---------------------------------------------------------------
Pair    | 15.061     | 17.104     | 18.712     |  17.7 | 47.76
Bond    | 0.055284   | 0.059259   | 0.066105   |   1.0 |  0.17
Kspace  | 6.5515     | 8.1563     | 10.188     |  25.6 | 22.77
Neigh   | 0.8217     | 0.82664    | 0.8321     |   0.3 |  2.31
Comm    | 1.3638     | 1.3833     | 1.4049     |   0.8 |  3.86
Output  | 0.00041571 | 0.00043057 | 0.00071764 |   0.0 |  0.00
Modify  | 6.5642     | 7.0321     | 7.9907     |  20.0 | 19.64
Other   |            | 1.251      |            |       |  3.49

Nlocal:         131.75 ave         148 max         118 min
Histogram: 2 0 4 4 4 2 3 2 1 2
Nghost:        4542.79 ave        4598 max        4495 min
Histogram: 2 3 1 3 4 4 1 3 2 1
Neighs:        52357.4 ave       58357 max       46096 min
Histogram: 1 1 2 5 4 4 3 0 0 4

Total # of neighbors = 1256577
Ave neighs/atom = 397.39943
Ave special neighs/atom = 2.0341556
Neighbor list builds = 523
Dangerous builds = 0
  create bodies CPU = 0.000 seconds
  1054 rigid bodies with 3162 atoms
  1.490161 = max distance from body owner to body atom
PPPM initialization ...
  extracting TIP4P info from pair style
  using 12-bit tables for long-range coulomb (../kspace.cpp:342)
  G vector (1/distance) = 0.3117767
  grid = 30 30 30
  stencil order = 5
  estimated absolute RMS force accuracy = 0.0034698053
  estimated relative force accuracy = 1.0449216e-05
  using double precision KISS FFT
  3d grid and FFT values/proc = 5610 1800
Generated 0 of 15 mixed pair_coeff terms from arithmetic mixing rule
Setting up Verlet run ...
  Unit style    : real
  Current step  : 0
  Time step     : 2
Per MPI rank memory allocation (min/avg/max) = 15.57 | 15.61 | 15.65 Mbytes
   Step        Density          Temp          Press          TotEng    
         0   1.0689802      291.81419      1326.8113     -16830.522    
      1000   1.0898733      302.8692       399.94558     -16854.159    
      2000   1.0720248      291.43876     -206.3364      -16834.142    
      3000   1.0838333      293.01988     -154.54164     -16809.823    
      4000   1.0733581      292.84029     -904.61394     -16767.84     
      5000   1.0906236      292.67317      351.2783      -16779.677    
      6000   1.079693       296.47828     -237.19616     -16768.555    
      7000   1.0956997      297.83187      379.96549     -16814.799    
      8000   1.0817269      284.66278      200.19599     -16802.711    
      9000   1.0980861      298.03542      366.23133     -16900.909    
     10000   1.0820887      300.12788      117.6541      -16850.778    
     11000   1.0810433      289.65485     -504.71403     -16899.619    
     12000   1.0694557      297.90576     -39.195077     -16724.29     
     13000   1.0820566      297.67198      399.62213     -16824.335    
     14000   1.0699059      299.68369     -481.44763     -16816.313    
     15000   1.0787298      292.69575     -867.21134     -16921.017    
     16000   1.0868155      301.47734      137.99135     -16905.064    
     17000   1.083825       298.26564      138.17215     -16872.602    
     18000   1.0867462      297.04519      173.50277     -16883.083    
     19000   1.0890996      301.87626      533.58154     -16749.255    
     20000   1.0774626      301.67265      434.72445     -16755.989    
     21000   1.0797783      298.30186     -686.0434      -16801.598    
     22000   1.0746819      296.86637     -364.72664     -16920.472    
     23000   1.0804199      297.76517     -10.127405     -16769.228    
     24000   1.0718077      299.90117     -78.930042     -16761.492    
     25000   1.0915298      298.84582      160.21071     -16942.819    
     26000   1.0778694      308.72601      46.540545     -16783.256    
     27000   1.0858838      292.75625      274.2138      -16874.643    
     28000   1.0793677      291.40323      108.95935     -16805.775    
     29000   1.0779624      292.9184      -590.43837     -16870.036    
     30000   1.0851348      291.33378      1088.1349     -16862.468    
     31000   1.0793898      302.71358     -231.86908     -16821.57     
     32000   1.0771483      288.17906     -557.39478     -16837.842    
     33000   1.090463       300.43134      679.28324     -16725.76     
     34000   1.0929938      300.49617      158.213       -16815.683    
     35000   1.0771202      300.19354     -92.897542     -16768.66     
     36000   1.0850216      290.81707     -554.94352     -16777.444    
     37000   1.0713476      300.45427     -568.11882     -16866.417    
     38000   1.0805341      292.21997      36.680168     -16960.697    
     39000   1.0734577      291.8274      -858.75814     -16842.139    
     40000   1.072141       293.72384      102.09639     -16851.302    
     41000   1.081564       297.44318     -21.726633     -16873.778    
     42000   1.0911702      298.44742     -159.61816     -16775.546    
     43000   1.0812849      293.36731     -32.444193     -16807.982    
     44000   1.0871767      298.89662      1231.7302     -16899.951    
     45000   1.0877007      287.40405     -515.08594     -16860.306    
     46000   1.0760094      295.99912     -586.34467     -16880.905    
     47000   1.092135       300.02766     -359.33087     -16846.544    
     48000   1.0825886      298.68184     -1009.4477     -16781.828    
     49000   1.0793865      300.12207      361.31402     -16770.232    
     50000   1.0941155      293.04454     -155.93221     -16815.921    
     51000   1.0893137      299.17547      56.36532      -16940.636    
     52000   1.081476       300.61483     -229.11127     -16719.792    
     53000   1.0785306      295.88219     -36.194338     -16814.014    
     54000   1.0999043      299.33072      1117.9766     -16827.352    
     55000   1.0694655      293.48167     -488.80074     -16889.323    
     56000   1.0944267      298.32907      315.08345     -16882.336    
     57000   1.07677        291.554       -1.1973293     -16886.31     
     58000   1.0892526      292.56162      29.091867     -16912.422    
     59000   1.0841219      298.63952     -246.63161     -16729.947    
     60000   1.0722147      301.49903     -820.71649     -16758.098    
     61000   1.0886781      295.48337     -188.48448     -16852.847    
     62000   1.0834924      293.95276      489.8276      -16846.214    
     63000   1.0928147      295.02183     -217.91205     -16840.456    
     64000   1.0873149      292.86261     -65.626737     -16834.58     
     65000   1.0763665      294.45277     -618.06639     -16913.489    
     66000   1.0733261      301.07239     -600.12505     -16830.641    
     67000   1.0947142      295.83432      747.12123     -16760.949    
     68000   1.0848598      294.87709      38.013219     -16840.257    
     69000   1.0727608      289.05364      605.45859     -16840.182    
     70000   1.0917328      302.80695      768.63933     -16775.548    
     71000   1.0863801      298.92859     -421.34174     -16771.888    
     72000   1.07505        290.92631      57.495244     -16839.725    
     73000   1.0822912      302.3582       17.06006      -16736.127    
     74000   1.0946326      299.56668     -28.922011     -16814.497    
     75000   1.1027776      294.76028      780.46529     -16839.194    
     76000   1.0925273      298.85657      432.31146     -16747.255    
     77000   1.0901466      299.47262      913.50264     -16721.857    
     78000   1.0923009      301.43923     -47.113545     -16831.747    
     79000   1.0973087      303.57516      972.31761     -16771.603    
     80000   1.0761533      290.53227     -362.85204     -16844.064    
     81000   1.0722175      300.90652     -495.99275     -16810.881    
     82000   1.0866751      298.00937      353.91182     -16854.811    
     83000   1.07642        296.99046     -740.21377     -16781.012    
     84000   1.0883324      303.92486      318.27932     -16696.692    
     85000   1.0766466      301.2228       633.91933     -16803.503    
     86000   1.0721445      291.09921     -54.298865     -16853.343    
     87000   1.084795       293.42207      247.65864     -16822.199    
     88000   1.0795983      293.64152     -1194.8355     -16820.711    
     89000   1.0923253      290.32529     -97.623459     -16805.436    
     90000   1.0867549      303.24684      33.820703     -16815.751    
     91000   1.0884677      290.07903      1236.465      -16779.367    
     92000   1.076295       293.71024     -28.284237     -16852.539    
     93000   1.0689836      293.85221     -186.98658     -16829.201    
     94000   1.0714163      295.90286      197.8859      -16774.898    
     95000   1.0703335      306.80987     -531.16273     -16691.271    
     96000   1.0802654      301.33196     -627.98549     -16775.399    
     97000   1.07652        288.64951      315.60641     -16874.627    
     98000   1.0767427      300.98238      229.66156     -16804.847    
     99000   1.0743268      288.86937      166.3955      -16894.558    
    100000   1.0732045      290.5131      -377.25676     -16842.984    
    101000   1.0678443      291.90065     -76.474531     -16845.928    
    102000   1.0592504      287.83881     -722.84059     -16882.381    
    103000   1.088958       293.70208      14.277528     -16817.46     
    104000   1.0900454      290.10974     -121.74113     -16844.831    
    105000   1.0742963      291.06782     -224.52696     -16851.226    
    106000   1.0681091      306.81227      172.94933     -16700.463    
    107000   1.0721494      298.6431       432.63557     -16862.832    
    108000   1.0733086      296.76239     -620.63313     -16809.014    
    109000   1.0763974      295.93104     -537.13283     -16793.683    
    110000   1.0787977      286.60637      539.9221      -16835.326    
    111000   1.0725964      303.98724     -791.69863     -16791.681    
    112000   1.0849456      298.15987     -73.305347     -16847.88     
    113000   1.0822328      285.82436     -796.98653     -16861.629    
    114000   1.0899234      297.37486     -54.480074     -16885.803    
    115000   1.0711446      297.07163      98.125465     -16818.955    
    116000   1.0718156      303.15344     -481.70143     -16640.316    
    117000   1.0863328      286.86601      776.97253     -16879.637    
    118000   1.0807458      301.09294      326.19205     -16838.555    
    119000   1.0736388      294.25444     -11.598522     -16820.543    
    120000   1.0813291      301.4605       200.69023     -16825.516    
    121000   1.0807999      296.41375     -131.99778     -16963.923    
    122000   1.0749158      296.35758      709.37837     -16852.211    
    123000   1.0739697      303.55204     -246.95835     -16730.541    
    124000   1.0864508      296.72412     -85.407247     -16861.055    
    125000   1.0797536      292.80361      251.18051     -16881.35     
    126000   1.0694931      303.86395     -536.85495     -16828.809    
    127000   1.0743857      298.02633     -132.43939     -16823.896    
    128000   1.0774724      302.7005       460.41517     -16822.391    
    129000   1.074819       287.17725     -393.69174     -16934.59     
    130000   1.0800845      298.25841     -309.08246     -16735.224    
    131000   1.0797099      292.45154     -598.85183     -16841.716    
    132000   1.0793609      288.69254     -847.41395     -16872.995    
    133000   1.0656841      293.81264     -878.39179     -16754.278    
    134000   1.075106       295.17627      87.824753     -16842.795    
    135000   1.1029259      294.04866      1275.1004     -16836.277    
    136000   1.0908246      309.47765     -147.3614      -16728.73     
    137000   1.0974189      294.4359       294.70321     -16828.494    
    138000   1.0763435      285.76923     -54.026879     -16943.935    
    139000   1.082593       301.00967     -158.95744     -16794.998    
    140000   1.0896747      299.54975      540.45871     -16732.036    
    141000   1.0766502      286.23743      567.40619     -16815.786    
    142000   1.0738236      297.51123      231.88533     -16765.928    
    143000   1.0818353      293.83356      869.81929     -16838.965    
    144000   1.0903279      304.54473     -339.09231     -16790.241    
    145000   1.0722097      295.24633     -935.73911     -16848.753    
    146000   1.0745895      293.8649      -714.98095     -16820.35     
    147000   1.0824521      293.78986     -551.31274     -16815.583    
    148000   1.0753777      302.451       -366.7544      -16795.834    
    149000   1.086375       300.79483      111.54889     -16817.105    
    150000   1.0868165      304.73624     -650.5775      -16698.446    
    151000   1.0651143      297.09005     -549.87801     -16834.923    
    152000   1.0767959      308.94191      138.55108     -16761.032    
    153000   1.076763       301.41257      90.460477     -16774.751    
    154000   1.0928462      295.67902     -345.49334     -16786.778    
    155000   1.0796694      291.95054      278.35652     -16832.296    
    156000   1.0859248      296.3554       665.40863     -16738.693    
    157000   1.0747596      302.42807     -586.11626     -16774.396    
    158000   1.0886006      301.59107      260.45382     -16867.756    
    159000   1.0768327      285.70653     -547.90191     -16997.233    
    160000   1.077695       294.23596     -125.47351     -16879.297    
    161000   1.0766188      293.16892     -426.53244     -16970.012    
    162000   1.0893793      297.07772      703.93685     -16849.262    
    163000   1.0855597      298.21162      470.22409     -16852.444    
    164000   1.088861       292.88447     -1054.9329     -16964.034    
    165000   1.0837696      296.63011     -373.51523     -16848.095    
    166000   1.086498       299.18852      502.89367     -16764.146    
    167000   1.0815483      291.11018     -41.770828     -16818.851    
    168000   1.0663427      296.79532     -733.13198     -16749.095    
    169000   1.0789747      295.57168      611.64192     -16837.259    
    170000   1.0950216      293.94157      35.431234     -16919.002    
    171000   1.0761883      294.06917      858.36884     -16856.499    
    172000   1.0715842      301.85529     -400.34403     -16769.81     
    173000   1.0817489      286.5647      -168.84377     -16909.08     
    174000   1.0833851      299.66716     -459.0512      -16883.404    
    175000   1.0801598      288.60653     -805.40031     -16893.386    
    176000   1.0659667      293.73615      167.39211     -16811.218    
    177000   1.076937       301.95898     -50.14052      -16834.221    
    178000   1.0860797      298.44507      77.817622     -16739.948    
    179000   1.0802643      290.30274     -273.77675     -16914.507    
    180000   1.0742438      298.34044     -122.87056     -16869.215    
    181000   1.0856596      301.52138     -222.64603     -16868.597    
    182000   1.0988325      300.66595      507.34191     -16762.73     
    183000   1.0944391      305.49102      635.94917     -16755.921    
    184000   1.0882446      291.17552     -131.97879     -16992.111    
    185000   1.0949523      303.68285      801.65453     -16773.958    
    186000   1.086044       300.45566     -293.36351     -16848.078    
    187000   1.0681294      300.80729     -469.85953     -16842.295    
    188000   1.0932714      293.27948      1527.2224     -16903.166    
    189000   1.0849526      303.17366      169.50036     -16720.525    
    190000   1.0877923      301.71775      361.03287     -16764.034    
    191000   1.0871239      300.6393       106.59067     -16796.152    
    192000   1.0968669      296.48786      707.70057     -16787.789    
    193000   1.0922677      294.60731     -13.755274     -16846.222    
    194000   1.0852784      293.40536      217.10552     -16748.658    
    195000   1.0745433      297.20202     -477.66657     -16867.97     
    196000   1.083532       298.27234     -688.35117     -16850.423    
    197000   1.0834126      296.28428     -335.45123     -16864.83     
    198000   1.0924292      303.28821      255.42649     -16801.054    
    199000   1.0763088      291.67992      287.69248     -16762.275    
    200000   1.0656278      290.63304     -732.91527     -16821.938    
    201000   1.087807       302.93969      490.97477     -16772.588    
    202000   1.0752554      302.90008     -358.86807     -16827.059    
    203000   1.0767305      287.24176     -12.663991     -16747.571    
    204000   1.1003344      289.98905      705.81908     -16845.557    
    205000   1.086943       293.08978      45.430287     -16877.816    
    206000   1.0805012      296.82472      36.791962     -16748.653    
    207000   1.0755036      289.56821     -386.96449     -16852.157    
    208000   1.0749961      292.80611      304.87541     -16819.39     
    209000   1.0931007      291.35714      342.4478      -16898.902    
    210000   1.0761783      295.82738     -483.58301     -16847.294    
    211000   1.0849835      305.7799       412.41145     -16864.001    
    212000   1.0857134      296.89817      85.877484     -16861.82     
    213000   1.0733661      306.19668     -288.53377     -16791.931    
    214000   1.0657307      302.48831     -75.98771      -16800.416    
    215000   1.068772       293.05728      954.47898     -16825.483    
    216000   1.0745795      305.161        36.992781     -16846.202    
    217000   1.0773815      293.29516     -203.1492      -16823.416    
    218000   1.0827256      302.49592      577.8129      -16871.905    
    219000   1.0757036      298.41367     -107.6604      -16861.957    
    220000   1.0737411      294.21248     -952.31513     -16862.718    
    221000   1.084409       286.25929     -417.72651     -16902.869    
    222000   1.0856338      288.61085      387.05963     -16922.883    
    223000   1.0743983      291.48929     -454.21511     -16799.312    
    224000   1.0845717      299.74555      357.72684     -16832.297    
    225000   1.0904129      298.66916      243.21324     -16721.903    
    226000   1.0831891      298.29351      198.64944     -16858.637    
    227000   1.087773       294.19423      239.34638     -16786.356    
    228000   1.0689073      292.79763      92.652756     -16766.665    
    229000   1.0785785      294.762        311.01324     -16837.528    
    230000   1.0874506      299.42806      660.10562     -16816.576    
    231000   1.0725102      301.1494      -606.90435     -16753.221    
    232000   1.0733991      296.63302     -751.92269     -16738.593    
    233000   1.0717925      286.15293     -883.20658     -16814.313    
    234000   1.0824083      296.45184      525.80205     -16893.257    
    235000   1.0737146      297.7129      -250.31701     -16701.395    
    236000   1.0731885      295.23878     -396.58797     -16771.269    
    237000   1.0795312      288.9478      -95.93276      -16832.599    
    238000   1.0918628      302.10916     -302.28677     -16789.775    
    239000   1.0906645      290.95323      235.96934     -16779.151    
    240000   1.088138       307.94776      176.42237     -16723.237    
    241000   1.0869398      290.24163      6.6052409     -16875.938    
    242000   1.07594        304.11661     -11.072791     -16759.369    
    243000   1.0762478      298.64812     -484.01096     -16808.765    
    244000   1.0843578      302.38211     -147.57904     -16817.304    
    245000   1.0749512      297.44807      83.472188     -16818.715    
    246000   1.0755445      303.28422     -265.67057     -16776.959    
    247000   1.074036       296.51635     -461.47407     -16845.923    
    248000   1.0858805      295.7248       82.336426     -16838.562    
    249000   1.0820487      296.41203      70.684851     -16820.551    
    250000   1.080535       300.05219     -12.342435     -16814.356    
    251000   1.0821918      290.08682      518.91201     -16813.515    
    252000   1.0780608      295.47606     -458.27514     -16872.309    
    253000   1.0823824      295.5954       538.82493     -16792.219    
    254000   1.0681546      294.364        276.87522     -16819.325    
    255000   1.0896382      288.18217     -520.91305     -16861.811    
    256000   1.0812069      290.59575     -400.45322     -16857.366    
    257000   1.0789865      296.85958     -80.384979     -16877.988    
    258000   1.0937262      290.70066      761.98621     -16829.428    
    259000   1.0738683      302.99272      19.600536     -16791.46     
    260000   1.0851372      294.20962      181.38099     -16901.265    
    261000   1.0870511      309.10119      661.80327     -16843.729    
    262000   1.0829629      310.43026      160.85707     -16801.484    
    263000   1.0825078      298.2411      -643.71129     -16838.51     
    264000   1.0911201      299.4155       308.45554     -16842.719    
    265000   1.0826971      293.1213       23.614875     -16799.715    
    266000   1.0791713      286.22613     -345.19127     -16844.498    
    267000   1.071454       289.31961     -376.77939     -16842.111    
    268000   1.0725628      296.50984     -576.99577     -16893.197    
    269000   1.0851193      284.63209      34.648577     -16876.191    
    270000   1.0736113      286.84717      199.52628     -16777.116    
    271000   1.0855896      290.24037     -30.848872     -16866.489    
    272000   1.0701978      296.11886     -353.77609     -16799.97     
    273000   1.0727093      296.32946     -784.82543     -16812.749    
    274000   1.0824134      289.84649      40.550819     -16831.763    
    275000   1.0948795      297.15058     -212.38085     -16776.511    
    276000   1.0758962      290.48725     -483.6852      -16779.517    
    277000   1.0813991      298.60228     -417.34084     -16776.26     
    278000   1.0641539      298.18356     -791.36201     -16768.855    
    279000   1.0729095      291.03306     -388.19078     -16910.115    
    280000   1.0746625      296.61925     -336.13083     -16820.366    
    281000   1.070226       301.35576      271.13367     -16695.899    
    282000   1.0748186      298.74794     -327.60213     -16716.955    
    283000   1.0771929      297.92787      182.08535     -16806.232    
    284000   1.0744544      294.35297      191.55783     -16833.541    
    285000   1.0905933      288.22729      973.76467     -16954.245    
    286000   1.0892881      286.35888      708.51954     -16962.924    
    287000   1.0792268      292.63948      661.45374     -16882.425    
    288000   1.0770956      297.63799     -422.6065      -16830.796    
    289000   1.0740356      295.58166     -28.701107     -16802.508    
    290000   1.0750049      292.89658     -919.35027     -16844.236    
    291000   1.0662881      291.55378      148.09273     -16828.36     
    292000   1.0798603      290.84428      310.34952     -16857.519    
    293000   1.0671506      297.60863     -74.408459     -16784.905    
    294000   1.0761187      295.57457     -513.71344     -16852.355    
    295000   1.0781565      280.15053     -417.43867     -16890.996    
    296000   1.0816703      292.85007     -870.36499     -16873.61     
    297000   1.0742536      299.51388     -177.64212     -16827.536    
    298000   1.0863608      294.0441      -207.95439     -16825.839    
    299000   1.0834066      301.89565      178.24182     -16729.23     
    300000   1.0805853      280.54714     -773.63319     -16914.07     
    301000   1.0734517      293.77101     -324.21938     -16847.322    
    302000   1.0889049      295.47844      420.53109     -16915.484    
    303000   1.0701795      290.90018      125.03191     -16834.85     
    304000   1.0723935      295.89812     -195.92992     -16839.227    
    305000   1.0701155      295.81897     -369.67164     -16827.703    
    306000   1.0800656      299.32582     -99.878915     -16790.844    
    307000   1.0812757      290.95041     -591.8635      -16918.057    
    308000   1.0773829      289.77334      342.63319     -16895.805    
    309000   1.0811734      287.12337      321.67118     -16908.267    
    310000   1.0832217      293.7248      -782.20774     -16863.325    
    311000   1.0814141      287.86179     -181.27314     -16796.395    
    312000   1.0837118      300.47974      143.64791     -16836.046    
    313000   1.0861795      299.45944      442.67465     -16811.249    
    314000   1.0791049      300.55739      757.19503     -16719.098    
    315000   1.0743792      293.45875     -250.38988     -16843.556    
    316000   1.0758151      293.27371     -719.60591     -16829.145    
    317000   1.0755353      290.44157      471.94908     -16936.571    
    318000   1.0785889      293.50882      133.58605     -16840.295    
    319000   1.0851746      299.42974      189.74946     -16793.673    
    320000   1.0834581      292.06888      157.31395     -16760.727    
    321000   1.0812601      292.27272     -586.68586     -16755.453    
    322000   1.0792711      299.99166     -211.7321      -16753.104    
    323000   1.0794178      292.79744      807.06128     -16886.157    
    324000   1.0894755      298.91826      298.77354     -16805.596    
    325000   1.0947518      291.44408      790.13641     -16932.96     
    326000   1.090837       295.93669      632.97168     -16888.679    
    327000   1.0920301      292.98723      562.28386     -16829.377    
    328000   1.0865007      285.4209      -152.66693     -16827.694    
    329000   1.0709985      296.4897       228.88657     -16898.353    
    330000   1.0814172      291.66417     -168.89804     -16949.192    
    331000   1.0797195      295.73827     -136.68616     -16807.814    
    332000   1.0777782      301.70001      827.64667     -16814.958    
    333000   1.0780904      297.25653     -187.49135     -16793.786    
    334000   1.068008       299.84418     -204.92342     -16787.487    
    335000   1.0778368      294.9239      -125.93424     -16858.432    
    336000   1.0882035      291.71645      72.931451     -16861.393    
    337000   1.0794325      297.02985     -188.20074     -16819.366    
    338000   1.078794       287.85053     -182.93274     -16768.045    
    339000   1.076764       295.75004      90.187724     -16846.487    
    340000   1.0834332      295.33766     -41.281816     -16877.243    
    341000   1.0908282      296.93388      227.52814     -16841.666    
    342000   1.0730739      294.03196      291.01315     -16786.613    
    343000   1.0878825      306.77089      473.33584     -16720.475    
    344000   1.0785688      294.64781     -549.46692     -16821.703    
    345000   1.0767411      293.47001     -807.34122     -16888.436    
    346000   1.0725411      293.37701      141.68548     -16805.395    
    347000   1.0784044      302.02532      443.28184     -16765.618    
    348000   1.0810802      299.51774      417.11405     -16830.951    
    349000   1.0725721      304.58485     -14.539216     -16693.224    
    350000   1.066684       292.69437     -99.729848     -16812.227    
    351000   1.0871001      292.076       -396.65035     -16878.002    
    352000   1.0857437      300.48347      892.98185     -16848.607    
    353000   1.0796795      290.20224     -99.249262     -16862.349    
    354000   1.0896478      298.96945      605.66837     -16797.647    
    355000   1.0808152      290.82901      384.71034     -16882.198    
    356000   1.082541       297.82649      887.44038     -16813.007    
    357000   1.0897272      289.8226       730.31788     -16902.076    
    358000   1.0864437      304.99092     -460.20971     -16759.723    
    359000   1.0774128      297.60381      28.078698     -16868.45     
    360000   1.080944       298.62131     -904.04486     -16814.043    
    361000   1.0870364      303.16567      1050.8074     -16763.658    
    362000   1.0785839      306.02189     -206.68491     -16832.5      
    363000   1.0784548      298.84737      339.28961     -16848.006    
    364000   1.0893181      298.80714      119.62152     -16738.215    
    365000   1.0992108      303.41861      1206.9236     -16764.522    
    366000   1.0786701      295.48031     -35.908269     -16791.921    
    367000   1.0800917      299.75046      347.49483     -16717.983    
    368000   1.08983        303.8781       367.8396      -16712.58     
    369000   1.0676113      298.67533     -512.35823     -16781.753    
    370000   1.0738946      300.77261      114.0702      -16855.628    
    371000   1.078582       293.3333      -661.69928     -16866.135    
    372000   1.0905655      300.18506     -569.79465     -16850.37     
    373000   1.0916655      298.85369      452.3948      -16898.193    
    374000   1.0681973      304.3241      -842.09431     -16750.501    
    375000   1.0806121      298.14839     -614.80526     -16735.199    
    376000   1.0839252      301.61948      216.3251      -16769.342    
    377000   1.0824593      287.83435     -507.18086     -16832.267    
    378000   1.0853991      302.58093      34.815388     -16829.97     
    379000   1.0835374      295.01109     -474.13757     -16799.646    
    380000   1.0671118      291.16712     -539.10066     -16869.048    
    381000   1.0871023      295.32987      715.87495     -16867.091    
    382000   1.0854722      298.53098      611.87504     -16781.806    
    383000   1.0838663      286.50652      75.353091     -16864.203    
    384000   1.0779923      301.99383     -383.93768     -16752.231    
    385000   1.0838395      305.91054     -151.0703      -16756.38     
    386000   1.0799306      284.95709      565.60185     -16912.672    
    387000   1.095591       291.19208      262.57535     -16870.824    
    388000   1.0908883      290.06037      198.02844     -16905.974    
    389000   1.0793396      294.24058     -575.59953     -16878.056    
    390000   1.0810792      289.17815      216.99916     -16821.745    
    391000   1.0953203      286.32403      462.70007     -16837.827    
    392000   1.0751678      292.31089     -410.32501     -16930.419    
    393000   1.0869975      300.2974      -76.594414     -16734.336    
    394000   1.1086349      300.54219      554.54065     -16809.867    
    395000   1.0830257      300.75481     -107.65704     -16833.28     
    396000   1.0839009      305.23652     -145.79194     -16716.925    
    397000   1.0777778      301.46689     -309.76368     -16777.501    
    398000   1.0825624      297.86034      326.77034     -16741.278    
    399000   1.0824042      301.05161     -97.718356     -16751.837    
    400000   1.075042       292.86063      397.92289     -16837.491    
    401000   1.0934895      290.76402     -377.44646     -16884.485    
    402000   1.0823502      283.43485      559.30527     -16981.622    
    403000   1.078242       286.03879      305.66938     -16919.249    
    404000   1.079798       289.03784     -219.37828     -16881.038    
    405000   1.0840226      297.63181      110.74576     -16850.487    
    406000   1.0857117      298.64701     -858.22396     -16788.258    
    407000   1.0775875      294.66084      170.79158     -16859.633    
    408000   1.0871296      296.65573      115.96844     -16790.645    
    409000   1.0771567      293.26162     -1135.5853     -16833.223    
    410000   1.0754016      300.74632      153.36199     -16738.128    
    411000   1.0763044      295.04883      1059.0433     -16780.082    
    412000   1.0750581      295.12462     -514.70456     -16809.265    
    413000   1.0879029      285.11986      171.94885     -16841.866    
    414000   1.0764185      308.88795      329.08036     -16630.02     
    415000   1.0816542      298.83336      631.3842      -16830.928    
    416000   1.0837073      300.02161     -528.16403     -16802.619    
    417000   1.0826099      298.51058     -756.60136     -16731.648    
    418000   1.0874774      295.25962     -196.14634     -16802.654    
    419000   1.0746279      288.90413     -696.93849     -16875.133    
    420000   1.077152       304.23478     -497.66388     -16806.778    
    421000   1.0713767      289.82911     -534.69435     -16854.407    
    422000   1.0625407      299.2794      -605.75526     -16830.319    
    423000   1.0730095      293.41819     -226.26585     -16823.241    
    424000   1.0710899      296.00341     -483.5569      -16844.761    
    425000   1.0702091      298.5416      -548.57225     -16776.259    
    426000   1.0772587      293.12098     -450.53157     -16830.838    
    427000   1.0870832      301.56199      274.13374     -16821.745    
    428000   1.0737687      301.1221      -528.24803     -16831.778    
    429000   1.0817062      293.39406      610.86755     -16940.434    
    430000   1.0733978      297.21729     -528.12829     -16832.718    
    431000   1.0831346      306.75969      353.83153     -16769.442    
    432000   1.0631356      294.91195      355.33117     -16947.505    
    433000   1.0775311      298.0824       220.26303     -16797.524    
    434000   1.0790657      286.36565     -788.03667     -16897.646    
    435000   1.0761422      297.92156      26.940664     -16790.403    
    436000   1.080127       295.97998     -251.89423     -16853.358    
    437000   1.0771013      295.29768     -146.45383     -16858.385    
    438000   1.069237       296.53773     -362.19556     -16882.873    
    439000   1.0802377      294.45342      727.25767     -16829.971    
    440000   1.074734       298.71291     -106.46714     -16786.795    
    441000   1.0662429      292.56275     -267.42546     -16889.282    
    442000   1.0808048      284.82553     -196.16246     -16833.236    
    443000   1.0808648      297.34765     -556.22888     -16867.482    
    444000   1.0786868      291.0522      -556.87574     -16764.272    
    445000   1.0852825      296.18885     -658.50944     -16788.781    
    446000   1.0732961      292.33635     -461.47356     -16772.196    
    447000   1.0800695      304.27746     -9.9643474     -16757.523    
    448000   1.070457       297.32489     -47.75126      -16826.314    
    449000   1.0739888      300.16309     -256.06504     -16822.964    
    450000   1.0964763      296.74313      618.55825     -16909.657    
    451000   1.0762808      294.6755       94.781878     -16846.016    
    452000   1.0754491      301.14292      63.417949     -16751.321    
    453000   1.0854234      299.31984     -118.27112     -16828.516    
    454000   1.0831127      296.94575     -439.39394     -16800.283    
    455000   1.0848992      290.18649     -421.43584     -16897.637    
    456000   1.0951837      293.9705       390.5004      -16840.94     
    457000   1.0771591      287.13261     -398.12247     -16844.371    
    458000   1.0961031      296.89677      491.23198     -16820.333    
    459000   1.0876274      289.1325      -182.92972     -16858.06     
    460000   1.0818596      295.8597       514.63391     -16722.786    
    461000   1.0790737      306.11917      62.864509     -16744.063    
    462000   1.0897993      297.14654      843.47244     -16873.702    
    463000   1.075607       292.5591      -797.73429     -16803.812    
    464000   1.0793676      303.18164     -250.94958     -16819.181    
    465000   1.0662932      300.38643     -538.94359     -16764.212    
    466000   1.0838901      302.26495      426.60295     -16832.099    
    467000   1.0858396      279.18492     -83.422945     -16951.18     
    468000   1.0855601      285.68208      51.565945     -16868.095    
    469000   1.0874917      300.08256     -351.08026     -16709.411    
    470000   1.0785623      293.7448      -160.49478     -16755.603    
    471000   1.0856993      295.6983       50.232637     -16855.451    
    472000   1.0882534      295.3978      -30.099287     -16858.452    
    473000   1.0843879      289.06218     -120.32552     -16863.112    
    474000   1.0779446      301.20557     -394.03564     -16823.495    
    475000   1.0711869      295.62887      86.826844     -16787.926    
    476000   1.0748291      300.56854     -542.2651      -16802.219    
    477000   1.0647597      294.01495     -726.65498     -16792.85     
    478000   1.084711       291.15439      69.409834     -16851.902    
    479000   1.0840458      301.6804      -136.17452     -16809.04     
    480000   1.0750667      293.41005      315.879       -16836.143    
    481000   1.0942975      306.00711     -628.20674     -16797.849    
    482000   1.0780356      292.99635     -307.64898     -16858.189    
    483000   1.0804941      293.36653     -266.32471     -16880.162    
    484000   1.0925955      299.23282     -585.14405     -16807.022    
    485000   1.0799829      304.04203      448.06699     -16718.357    
    486000   1.082763       295.51502      149.55078     -16762.96     
    487000   1.0788709      303.23642      218.61961     -16781.449    
    488000   1.0702449      297.02924      4.0925269     -16864.099    
    489000   1.0708438      289.82537     -872.51825     -16822.906    
    490000   1.0754336      294.93305      151.60522     -16768.229    
    491000   1.0758426      296.90886      411.49988     -16855.002    
    492000   1.0848556      303.0278       811.80191     -16762.811    
    493000   1.0780537      294.82019     -24.319935     -16838.124    
    494000   1.0835875      299.0781       460.58409     -16770.256    
    495000   1.0741062      288.64517     -1185.0986     -16821.049    
    496000   1.0763345      298.28432      214.96099     -16753.517    
    497000   1.0806506      303.77384     -216.30795     -16774.774    
    498000   1.0878661      291.24711     -1083.5836     -16853.089    
    499000   1.0818805      296.32855      308.00361     -16809.683    
    500000   1.0915803      299.0885       1094.3956     -16834.061    
    501000   1.0852895      288.6353       251.28233     -16871.622    
    502000   1.0882301      295.0224      -257.82594     -16823.439    
    503000   1.0838315      293.66094     -22.295829     -16778.253    
    504000   1.0807516      297.38573     -80.806652     -16835.635    
    505000   1.082289       299.36712     -286.59743     -16809.696    
    506000   1.0758503      302.39508      371.13826     -16725.521    
    507000   1.0834846      300.11825      257.25555     -16730.855    
    508000   1.0684756      287.53547     -1031.5287     -16935.401    
    509000   1.0836713      295.33031     -98.164833     -16825.733    
    510000   1.0788402      299.336       -312.83927     -16849.315    
    511000   1.0882859      302.19004      617.00584     -16794.915    
    512000   1.0810975      301.90024     -356.12229     -16793.439    
    513000   1.0805289      296.38601      956.69261     -16851.726    
    514000   1.075252       296.39627      190.60242     -16740.638    
    515000   1.0920401      299.90169      5.4788378     -16835.289    
    516000   1.0729941      297.40166      16.435743     -16776.596    
    517000   1.0874033      292.94258      440.58593     -16930.451    
    518000   1.0789847      299.50368     -179.06235     -16674.918    
    519000   1.0803647      295.82151     -264.54126     -16844.874    
    520000   1.0825173      298.9962       550.71251     -16843.652    
    521000   1.0728968      290.90653      328.76457     -16826.342    
    522000   1.0738489      296.71013      251.50232     -16795.414    
    523000   1.0827989      293.51976      400.21637     -16836.139    
    524000   1.0886386      290.83249      35.39648      -16854.66     
    525000   1.0657117      303.7032      -280.46119     -16707.273    
    526000   1.0784106      304.76268      28.145901     -16791.187    
    527000   1.0881316      295.5813      -210.24289     -16999.256    
    528000   1.0745419      295.51933     -295.15243     -16857.703    
    529000   1.0750635      288.74485      97.434262     -16925.979    
    530000   1.0644542      293.45241      95.357943     -16820.154    
    531000   1.0829759      302.86504      251.68244     -16754.861    
    532000   1.0828911      301.94364     -485.40143     -16736.085    
    533000   1.0751722      299.6735      -659.29328     -16819.227    
    534000   1.0750894      293.33352      139.4175      -16784.123    
    535000   1.0774         298.10084     -496.30173     -16742.842    
    536000   1.0783582      302.00685      333.0182      -16786.423    
    537000   1.0748913      291.96791     -623.93643     -16791.556    
    538000   1.0699219      308.53776     -478.81906     -16718.179    
    539000   1.0770953      287.34072      115.95819     -16841.713    
    540000   1.0833818      294.68895      301.05334     -16800.486    
    541000   1.0837297      294.86378      793.29705     -16779.124    
    542000   1.0827863      299.75926     -225.57357     -16782.244    
    543000   1.0682354      292.12502     -996.0885      -16842.407    
    544000   1.0774427      298.31252      85.853049     -16867.659    
    545000   1.0740659      294.76504     -409.52982     -16890.562    
    546000   1.0871887      299.11084      1016.9283     -16823.527    
    547000   1.0864687      304.11665     -94.337682     -16870.392    
    548000   1.0786907      296.1628       115.57698     -16824.589    
    549000   1.0811057      303.69143      535.99334     -16833.615    
    550000   1.0758952      289.30299     -51.282887     -16908.287    
    551000   1.0881813      296.94264      877.63341     -16927.642    
    552000   1.0860682      296.5574      -482.86593     -16840.921    
    553000   1.0854335      289.44724     -260.22855     -16955.609    
    554000   1.0902574      296.46915      426.14393     -16821.632    
    555000   1.0839559      296.61558      1377.4245     -16712.681    
    556000   1.077949       298.26742      391.60289     -16780.17     
    557000   1.0895         294.00036      1135.0129     -16813.272    
    558000   1.0811104      296.18643      873.43861     -16828.702    
    559000   1.0775927      294.20689      151.40837     -16858.841    
    560000   1.073436       302.62242      238.14136     -16786.73     
    561000   1.0848727      300.78977      457.49144     -16800.753    
    562000   1.0792214      298.36482      146.56684     -16810.973    
    563000   1.082342       306.67501      645.11629     -16758.321    
    564000   1.0753596      288.63973      756.45015     -16857.654    
    565000   1.0805071      295.48466      151.246       -16836.408    
    566000   1.0799765      290.38846      478.86197     -16821.154    
    567000   1.0671887      297.66593     -1138.4025     -16755.428    
    568000   1.0658189      297.07423     -1215.7038     -16735.606    
    569000   1.0750362      297.43812     -311.95804     -16716.104    
    570000   1.0995903      290.36347      176.88606     -16852.154    
    571000   1.0917042      291.41788      22.358805     -16814.607    
    572000   1.0832269      285.2886      -146.79486     -16901.514    
    573000   1.0785024      285.11234      427.05301     -16883.342    
    574000   1.0848926      303.06465      440.61984     -16831.053    
    575000   1.0814568      292.07221      0.68606329    -16848.95     
    576000   1.0830534      294.88331     -864.61388     -16854.245    
    577000   1.0922329      281.78585     -410.52549     -16896.42     
    578000   1.0890986      296.89622     -108.82968     -16786.183    
    579000   1.0778934      296.73277      34.183464     -16832.433    
    580000   1.077135       301.60905      714.98235     -16710.576    
    581000   1.0848874      301.07643      5.2952132     -16854.126    
    582000   1.0754712      302.24174      8.8831894     -16842.402    
    583000   1.0891865      298.03144      844.62456     -16757.512    
    584000   1.0893165      283.8755       783.37929     -16996.407    
    585000   1.0861242      301.78723      1318.8539     -16739.378    
    586000   1.0751423      307.24739      333.54719     -16765.687    
    587000   1.0731054      295.21504     -380.62006     -16841.335    
    588000   1.075399       298.29721     -810.78228     -16897.039    
    589000   1.062781       295.44951     -83.162049     -16778.9      
    590000   1.076166       305.79133     -310.91642     -16727.305    
    591000   1.0765577      298.87833     -329.35583     -16856.939    
    592000   1.0828292      295.80707     -765.25999     -16800.617    
    593000   1.069384       300.38757      128.74648     -16788.113    
    594000   1.0758917      300.72586      388.71703     -16835.999    
    595000   1.0674009      301.14095      216.94138     -16861.157    
    596000   1.0814968      291.28336      261.77023     -16868.131    
    597000   1.088782       279.35877      100.18444     -16915.717    
    598000   1.091939       305.18372      1035.8366     -16749.269    
    599000   1.0635868      288.54379     -834.20215     -16799.062    
    600000   1.0923978      300.69945     -150.98206     -16781.178    
    601000   1.0807077      301.60473      412.68177     -16749.606    
    602000   1.0862884      301.04084     -248.46718     -16853.503    
    603000   1.0837147      301.61114      11.797882     -16831.945    
    604000   1.0736908      296.22126     -25.074781     -16773.701    
    605000   1.0800673      297.40115     -223.14824     -16861.358    
    606000   1.0822756      298.70049      81.024301     -16813.092    
    607000   1.0780433      296.75016      1034.3241     -16856.869    
    608000   1.0757526      298.25154      166.75242     -16841.756    
    609000   1.0740126      295.01447      19.96119      -16791.456    
    610000   1.0845653      290.22149     -324.54138     -16786.457    
    611000   1.0755323      290.13176      52.786735     -16869.315    
    612000   1.0837815      297.92913      194.34518     -16793.278    
    613000   1.0812416      291.44545     -32.698159     -16871.498    
    614000   1.0905352      289.67768      976.15419     -16836.44     
    615000   1.0806031      298.18615     -585.4227      -16810.975    
    616000   1.0871532      290.38659      1161.6175     -16839.834    
    617000   1.0866455      296.94579     -396.53314     -16824.288    
    618000   1.0776401      295.99944     -929.85634     -16817.306    
    619000   1.063352       283.64026     -874.43494     -16896.387    
    620000   1.0723788      300.60387      308.51669     -16763.512    
    621000   1.0777679      294.66536     -135.64334     -16746.599    
    622000   1.0710584      298.83534     -543.38261     -16791.037    
    623000   1.0821027      300.85042     -271.94349     -16779.75     
    624000   1.0673903      299.9196      -517.01793     -16779.036    
    625000   1.080868       297.90951     -109.67661     -16805.16     
    626000   1.0812583      298.53443      1030.3659     -16778.473    
    627000   1.0727968      304.77522     -77.621337     -16778.168    
    628000   1.0809274      293.20892     -251.42242     -16849.744    
    629000   1.0935359      292.22578      256.81573     -16910.339    
    630000   1.072551       294.05578     -376.44531     -16891.706    
    631000   1.0820307      300.9721       163.02398     -16832.016    
    632000   1.0876975      294.9925       99.425172     -16938.29     
    633000   1.0800006      290.78209     -418.22039     -16781.187    
    634000   1.076087       299.16173     -314.71162     -16790.824    
    635000   1.0656808      296.98528     -315.5649      -16737.122    
    636000   1.083528       304.02457     -134.45034     -16735.662    
    637000   1.0641208      300.63177      87.187184     -16782.309    
    638000   1.0705272      301.01542     -693.02357     -16758.229    
    639000   1.0725827      294.99268     -321.31219     -16911.571    
    640000   1.0758024      293.02716     -661.4313      -16859.96     
    641000   1.0856597      299.09161     -108.94149     -16877.092    
    642000   1.0802135      295.58239      421.78866     -16881.016    
    643000   1.0705547      293.2741       318.62632     -16804.055    
    644000   1.0743019      302.29406     -476.20221     -16723.614    
    645000   1.0855218      290.42143      66.646382     -16852.46     
    646000   1.0872493      306.82018      178.78064     -16696.586    
    647000   1.0715865      299.70164     -334.31885     -16696.359    
    648000   1.0654422      306.39844     -933.66426     -16653.962    
    649000   1.0848339      291.26487     -205.71243     -16861.592    
    650000   1.0800136      296.04336      123.07807     -16813.129    
    651000   1.0729961      306.35593     -348.68972     -16758.245    
    652000   1.0846213      294.19372     -324.33498     -16899.713    
    653000   1.0753414      293.97148     -763.63519     -16796.18     
    654000   1.0765907      299.02422      401.34472     -16840.384    
    655000   1.0773223      300.43534     -540.02319     -16781.322    
    656000   1.0815205      290.91449     -253.80189     -16799.618    
    657000   1.0861916      287.6765      -547.21455     -16904.857    
    658000   1.0856871      297.26608      183.27172     -16855.175    
    659000   1.0681607      298.47471     -782.99914     -16845.869    
    660000   1.0849907      293.99665     -291.09814     -16843.183    
    661000   1.0707105      290.68157     -577.53428     -16819.569    
    662000   1.0821033      294.61849     -56.400124     -16815.862    
    663000   1.0748104      295.10369      347.61794     -16736.907    
    664000   1.0803984      298.74755     -27.373224     -16826.424    
    665000   1.0747157      300.64705     -61.099106     -16802.051    
    666000   1.0822412      297.09116      492.42361     -16895.628    
    667000   1.0760029      294.9726      -559.27829     -16812.713    
    668000   1.076719       287.47175     -261.5865      -16871.452    
    669000   1.0746164      296.15927     -936.10208     -16761.367    
    670000   1.0743963      293.62337     -1070.2317     -16927.768    
    671000   1.0836403      285.84589     -405.17517     -16903.756    
    672000   1.0784925      301.81793     -120.14797     -16779.004    
    673000   1.0828275      296.91019      468.54594     -16795.04     
    674000   1.0831195      287.4823       835.92571     -16959.07     
    675000   1.0888955      294.28924      919.22189     -16820.283    
    676000   1.0739689      305.6275      -195.67246     -16805.852    
    677000   1.0852282      289.12668     -228.25509     -16899.927    
    678000   1.0817634      284.2067       347.86397     -16936.396    
    679000   1.0766181      303.12483     -51.955497     -16749.969    
    680000   1.0967983      303.51669      759.52081     -16770.68     
    681000   1.0787067      307.90884     -4.3514073     -16811.749    
    682000   1.0784674      286.54083     -698.7253      -16945.563    
    683000   1.0804577      298.31411     -646.01815     -16782.956    
    684000   1.0890907      298.84888      260.09007     -16767.165    
    685000   1.0875614      298.80803      138.07813     -16862.394    
    686000   1.0858591      283.28873      509.86432     -16888.121    
    687000   1.0844382      292.25238      385.32059     -16793.45     
    688000   1.0542672      297.7534      -761.32535     -16792.422    
    689000   1.0792317      288.87979     -677.71462     -16803.844    
    690000   1.0865445      299.3518       293.48274     -16805.114    
    691000   1.0837987      302.05844      504.9746      -16838.687    
    692000   1.0636213      301.78761     -231.73195     -16760.737    
    693000   1.0681503      297.70791     -767.87441     -16870.06     
    694000   1.0686836      294.38596      60.833046     -16871.329    
    695000   1.0775942      304.11119      679.66947     -16726.725    
    696000   1.0742343      299.72121     -332.82227     -16832.506    
    697000   1.0884843      311.42433      966.7919      -16759.764    
    698000   1.0900103      293.14914      828.32227     -16901.277    
    699000   1.0968415      299.5452       1140.239      -16844.675    
    700000   1.0950253      294.71913      600.84925     -16808.875    
    701000   1.0772669      302.93391     -1011.4025     -16835.945    
    702000   1.0835852      297.90447      1493.91       -16787.427    
    703000   1.0816508      299.1647      -96.468362     -16787.945    
    704000   1.0832775      294.85701      155.55413     -16858.633    
    705000   1.0802721      293.16951     -667.03164     -16800.102    
    706000   1.0704048      294.21393     -87.43199      -16829.58     
    707000   1.070071       297.37934     -691.61805     -16753.067    
    708000   1.0781997      293.93008     -143.06998     -16825.464    
    709000   1.0804964      305.25984     -66.810706     -16789.659    
    710000   1.0804944      292.04512     -1500.8475     -16823.493    
    711000   1.0806681      307.49411     -155.12564     -16815.585    
    712000   1.0812697      290.49399     -931.20233     -16829.621    
    713000   1.0818724      293.16308      313.57556     -16713.137    
    714000   1.0900604      293.66569     -576.06672     -16886.678    
    715000   1.0807648      301.81324     -45.752912     -16691.002    
    716000   1.0912242      294.44101      268.61113     -16746.22     
    717000   1.0782284      302.29146     -193.71986     -16751.101    
    718000   1.0886214      301.50876      107.88061     -16788.04     
    719000   1.0772877      292.56944     -130.52807     -16841.385    
    720000   1.0852049      289.07533      135.19261     -16819.383    
    721000   1.0822278      298.8937       242.52962     -16786.638    
    722000   1.0710571      296.60045     -873.13137     -16871.727    
    723000   1.077195       289.88818      190.42362     -16803.027    
    724000   1.0635306      295.49941     -336.29043     -16795.752    
    725000   1.0785279      297.82309      24.084302     -16840.661    
    726000   1.0880493      303.38943      371.17252     -16818.133    
    727000   1.0842814      306.88008      275.20312     -16696.045    
    728000   1.0848379      293.54795     -538.45306     -16791.619    
    729000   1.0823039      299.76604      60.071366     -16791.376    
    730000   1.0907889      305.92091     -482.32741     -16739.945    
    731000   1.091171       301.66056      278.39677     -16709.114    
    732000   1.0797167      297.89709     -389.42968     -16821.943    
    733000   1.0653055      296.68075     -1336.3074     -16825.475    
    734000   1.0751677      290.33804     -319.34233     -16815.394    
    735000   1.0839989      307.41002     -73.385961     -16718.169    
    736000   1.0894276      300.59626      715.68073     -16826.187    
    737000   1.0772961      303.41848     -457.70984     -16740.192    
    738000   1.0752004      292.38878      152.05471     -16801.876    
    739000   1.0747807      299.11211      84.4695       -16835.568    
    740000   1.0789683      290.69341      962.40906     -16916.479    
    741000   1.0888409      305.06651      89.178702     -16727.568    
    742000   1.0660769      308.27168     -454.60748     -16627.879    
    743000   1.0772369      289.20605      280.2715      -16848.771    
    744000   1.0865161      294.10698      189.93721     -16846.744    
    745000   1.0849648      294.06155      829.93521     -16767.403    
    746000   1.0858686      280.34469      314.54645     -16904.348    
    747000   1.0888953      283.222        721.30883     -16944.57     
    748000   1.0844785      286.76942     -53.783567     -16942.083    
    749000   1.0815498      290.93111     -344.81132     -16923.452    
    750000   1.0850157      300.6807      -135.78937     -16771.077    
    751000   1.0755277      296.10191     -387.75677     -16768.9      
    752000   1.0713621      293.78348      147.45754     -16784.322    
    753000   1.0800041      306.15057     -65.414507     -16693.37     
    754000   1.0794788      290.40036     -314.62314     -16805.664    
    755000   1.0807737      289.9366      -636.93234     -16845.546    
    756000   1.0811548      291.80697     -559.38825     -16813.144    
    757000   1.0784945      291.48873     -226.62106     -16905.091    
    758000   1.0734493      294.87968      56.157302     -16875.121    
    759000   1.0722754      291.34257      168.22965     -16831.589    
    760000   1.088736       300.80946      744.92113     -16871.369    
    761000   1.0925877      296.64199     -203.51169     -16811.935    
    762000   1.0755589      302.76106      43.877565     -16728.636    
    763000   1.0774953      296.5062      -727.96025     -16799.239    
    764000   1.0806644      299.99822      682.92856     -16835.603    
    765000   1.0920275      295.05456      383.37674     -16889.59     
    766000   1.0771632      295.03465     -314.82816     -16737.485    
    767000   1.0810366      304.98258     -393.35966     -16730.313    
    768000   1.0969763      294.01465      768.21761     -16903.764    
    769000   1.0865299      305.96786     -161.44577     -16729.429    
    770000   1.0865308      298.16454      117.91856     -16887.629    
    771000   1.0701439      299.3006      -680.99075     -16781.394    
    772000   1.0693025      299.74423     -925.54236     -16797.147    
    773000   1.0708173      299.39939     -446.10829     -16789.33     
    774000   1.0695021      291.12219     -311.61887     -16829.03     
    775000   1.0696178      297.81748     -673.1206      -16647.139    
    776000   1.077184       299.96177      242.02749     -16810.351    
    777000   1.0644269      296.16599      301.95699     -16732.334    
    778000   1.0786814      295.90589     -233.37976     -16828.023    
    779000   1.0803278      301.17849     -64.790486     -16745.662    
    780000   1.0687996      290.29208     -71.575026     -16838.187    
    781000   1.0717044      299.85845     -138.65991     -16714.775    
    782000   1.0644678      304.40042     -250.39105     -16764.375    
    783000   1.0718303      292.56672      430.03675     -16784.017    
    784000   1.0756551      294.2786      -211.42724     -16811.208    
    785000   1.0751143      294.63905     -141.50166     -16856.127    
    786000   1.0763768      294.12151      325.66905     -16827.058    
    787000   1.0849774      301.87272     -624.03988     -16759.586    
    788000   1.0729258      300.05589     -389.22203     -16790.382    
    789000   1.0640828      295.35936     -515.1558      -16814.949    
    790000   1.0762402      293.77613      284.92321     -16830.393    
    791000   1.0716053      303.40932     -444.66366     -16843.436    
    792000   1.0886392      295.15709     -239.85488     -16811.597    
    793000   1.0859713      302.7105       545.4705      -16732.721    
    794000   1.0854615      282.60592      95.964982     -16963.529    
    795000   1.0745359      286.63547     -633.24244     -16905.189    
    796000   1.0841962      293.65356      341.39773     -16918.461    
    797000   1.0743274      303.1295      -472.07861     -16812.667    
    798000   1.0791082      299.65811     -542.81185     -16867.214    
    799000   1.084898       289.39957     -369.03387     -16878.874    
    800000   1.0804565      288.03476     -344.72682     -16930.477    
    801000   1.0878009      295.98149      977.67769     -16823.474    
    802000   1.0908127      298.31167      175.41692     -16789.605    
    803000   1.0863013      298.26336      351.39382     -16858.221    
    804000   1.0876778      296.45355      156.34768     -16754.04     
    805000   1.0803054      294.66955     -362.97554     -16803.726    
    806000   1.0712473      291.02969      395.13605     -16817.947    
    807000   1.0823932      292.87254      388.27019     -16837.209    
    808000   1.0707171      300.24846      225.19026     -16803.396    
    809000   1.0773647      302.4717      -31.314736     -16842.463    
    810000   1.0913962      300.695        379.10796     -16808.254    
    811000   1.0831576      295.71252      849.12191     -16811.792    
    812000   1.0664004      286.70586     -45.448622     -16914.611    
    813000   1.0738776      287.10993     -649.1612      -16906.264    
    814000   1.0722021      304.78011     -326.97004     -16742.842    
    815000   1.0721132      303.87127      14.112398     -16815.493    
    816000   1.0842356      286.74162      55.537007     -16922.815    
    817000   1.0860453      302.84768      128.65982     -16775.905    
    818000   1.0749473      292.60455      358.9438      -16759.651    
    819000   1.0870847      298.51807     -807.6191      -16785.207    
    820000   1.0909576      303.99565     -294.96409     -16722.198    
    821000   1.0892607      301.33453      471.27351     -16795.548    
    822000   1.0777833      297.25444     -274.22362     -16794.346    
    823000   1.0829451      295.11702      388.67863     -16846.725    
    824000   1.0696727      297.15573     -1117.7279     -16842.38     
    825000   1.0728157      287.9939      -601.39392     -16882.002    
    826000   1.0891244      297.00563     -718.14301     -16811.522    
    827000   1.0776433      299.00588     -583.27403     -16880.443    
    828000   1.067036       299.63874     -457.40848     -16772.946    
    829000   1.0750136      307.27694     -642.27543     -16735.184    
    830000   1.0726471      291.39684     -636.16828     -16902.613    
    831000   1.080749       289.70117     -752.40047     -16827.541    
    832000   1.0826834      293.06169      308.30511     -16901.726    
    833000   1.0865435      298.48889      397.98531     -16802.665    
    834000   1.0900098      288.59676     -426.81357     -16908.896    
    835000   1.0887172      300.03576      115.11327     -16795.899    
    836000   1.0856826      299.68561      2.7693341     -16890.455    
    837000   1.0827532      291.71395      89.494638     -16889.602    
    838000   1.0645495      296.16959     -1096.1941     -16843.398    
    839000   1.0762643      307.03117      149.79031     -16722.297    
    840000   1.0798507      289.01969     -435.26008     -16847.551    
    841000   1.0891227      297.36181      33.080413     -16782.293    
    842000   1.0812358      300.6557      -493.04952     -16820.579    
    843000   1.0790256      297.23911     -617.59533     -16801.334    
    844000   1.0789697      297.45314      959.35401     -16904.643    
    845000   1.0766283      296.31238      74.841643     -16905.344    
    846000   1.0769737      295.90638      154.30854     -16739.493    
    847000   1.0825027      300.98094      81.826423     -16839.867    
    848000   1.0741011      299.18111     -1075.6036     -16854.684    
    849000   1.0749107      299.95907      323.39258     -16827.059    
    850000   1.0786272      296.88441     -702.68574     -16706.063    
    851000   1.0844465      295.50933      146.82619     -16772.294    
    852000   1.0909099      288.40198      786.39248     -16850.585    
    853000   1.0739485      287.72126      542.65318     -16855.041    
    854000   1.0797477      298.83945     -243.19675     -16799.8      
    855000   1.0834934      296.88986     -926.56952     -16812.912    
    856000   1.0887293      291.32411      400.70777     -16847.015    
    857000   1.0739657      300.36328      20.269135     -16794.952    
    858000   1.0847733      300.48247      617.01167     -16807.734    
    859000   1.0882847      298.13035      196.15731     -16707.244    
    860000   1.0731546      293.77355     -276.39484     -16837.768    
    861000   1.0804413      300.21887     -414.43391     -16850.357    
    862000   1.0788159      298.45811     -283.60924     -16795.54     
    863000   1.0796207      288.78527     -769.42644     -16873.882    
    864000   1.0864727      296.59173      1109.2562     -16848.532    
    865000   1.0808596      298.69344      71.897009     -16804.573    
    866000   1.0818346      301.47615     -29.313026     -16694.026    
    867000   1.0874946      295.36061     -35.3233       -16752.621    
    868000   1.0751472      302.15781     -502.33975     -16803.02     
    869000   1.0773101      299.7711      -323.01704     -16875.446    
    870000   1.0797664      298.53786      299.12421     -16854.403    
    871000   1.0729258      293.30354      166.68768     -16877.968    
    872000   1.0760093      286.40974      857.95585     -16980.326    
    873000   1.0726172      302.6184      -434.76054     -16818.576    
    874000   1.0828805      302.99515      426.04882     -16823.807    
    875000   1.0682302      301.53512     -187.40575     -16835.152    
    876000   1.0756589      290.31074      429.00797     -16838.697    
    877000   1.0815312      291.16357     -25.207708     -16845.143    
    878000   1.0776069      297.92963     -67.053635     -16826.634    
    879000   1.0818252      289.54426      734.15531     -16856.951    
    880000   1.084314       300.83923      177.4048      -16758.985    
    881000   1.0784385      302.43359      260.57516     -16777.675    
    882000   1.0807822      304.1802       15.515232     -16764.346    
    883000   1.0841254      295.61204      182.29516     -16842.51     
    884000   1.080064       290.95522     -133.89474     -16848.617    
    885000   1.0762006      290.92594     -220.80564     -16814.765    
[...]
  10291000   1.0809422      294.51876      342.1792      -15375.03     
  10292000   1.0809422      305.07957      398.39031     -15295.78     
  10293000   1.0809422      302.06021      133.54632     -15456.168    
  10294000   1.0809422      291.78751     -159.06026     -15405.715    
  10295000   1.0809422      285.74478     -429.02847     -15507.459    
  10296000   1.0809422      288.06717     -743.62048     -15526.92     
  10297000   1.0809422      298.2417       293.90254     -15517.471    
  10298000   1.0809422      291.99608      60.789716     -15547.25     
  10299000   1.0809422      279.3571      -292.52999     -15639.07     
  10300000   1.0809422      296.8499      -98.17696      -15474.775    
  10301000   1.0809422      303.42459     -752.74932     -15544.443    
  10302000   1.0809422      289.10603      312.48034     -15479.692    
  10303000   1.0809422      293.16642      218.33632     -15522.55     
  10304000   1.0809422      283.21614     -655.91488     -15547.719    
  10305000   1.0809422      301.70097      317.53902     -15361.772    
  10306000   1.0809422      292.96549     -253.49391     -15472.408    
  10307000   1.0809422      293.6715      -207.03796     -15488.435    
  10308000   1.0809422      291.35961      126.20665     -15527.628    
  10309000   1.0809422      299.40222     -202.19934     -15446.764    
  10310000   1.0809422      295.91639      140.4131      -15442.128    
  10311000   1.0809422      289.69769      617.85133     -15357.043    
  10312000   1.0809422      298.40846      206.12606     -15509.312    
  10313000   1.0809422      306.29469      852.58103     -15586.365    
  10314000   1.0809422      297.57463      507.77167     -15461.788    
  10315000   1.0809422      292.70988     -414.70887     -15513.555    
  10316000   1.0809422      300.96243     -365.46514     -15401.99     
  10317000   1.0809422      295.41633     -926.9593      -15544.196    
  10318000   1.0809422      286.27811     -61.8773       -15568.544    
  10319000   1.0809422      289.03572     -200.58467     -15515.597    
  10320000   1.0809422      304.33034      827.03086     -15426.928    
  10321000   1.0809422      297.24808      26.007009     -15518.025    
  10322000   1.0809422      284.73196      756.13793     -15594.061    
  10323000   1.0809422      300.95868      374.56277     -15431.184    
  10324000   1.0809422      304.77988     -34.870984     -15373.079    
  10325000   1.0809422      303.22549     -586.63526     -15421.55     
  10326000   1.0809422      296.00524      367.73743     -15459.972    
  10327000   1.0809422      295.8852       329.43895     -15377.904    
  10328000   1.0809422      299.80304      779.85737     -15463.624    
  10329000   1.0809422      295.35341     -381.51048     -15501.949    
  10330000   1.0809422      295.64598     -475.71036     -15460.784    
  10331000   1.0809422      299.69887      709.93164     -15417.117    
  10332000   1.0809422      299.06215      57.636559     -15309.1      
  10333000   1.0809422      298.43437     -199.43327     -15421.209    
  10334000   1.0809422      294.15095      216.16493     -15554.935    
  10335000   1.0809422      285.55916     -317.44658     -15459.04     
  10336000   1.0809422      291.96542      220.90249     -15534.63     
  10337000   1.0809422      294.2349       212.01122     -15493.597    
  10338000   1.0809422      292.29348     -414.50626     -15474.134    
  10339000   1.0809422      296.84547      345.7723      -15485.069    
  10340000   1.0809422      299.79019     -302.9533      -15487.083    
  10341000   1.0809422      292.67419      515.66348     -15456.472    
  10342000   1.0809422      300.97179     -793.21768     -15513.002    
  10343000   1.0809422      299.31524      136.96457     -15486.519    
  10344000   1.0809422      298.722        298.85987     -15510.407    
  10345000   1.0809422      294.2373       473.56947     -15515.369    
  10346000   1.0809422      293.9003      -459.1519      -15564.84     
  10347000   1.0809422      293.57656      479.53397     -15519.955    
  10348000   1.0809422      302.54869      801.28856     -15412.202    
  10349000   1.0809422      295.28007      10.984354     -15558.848    
  10350000   1.0809422      295.10027     -467.89962     -15411.867    
  10351000   1.0809422      295.02252     -177.72294     -15549.013    
  10352000   1.0809422      303.46143      168.31921     -15377.509    
  10353000   1.0809422      302.10837     -307.07702     -15436.212    
  10354000   1.0809422      291.04501     -675.25037     -15521.494    
  10355000   1.0809422      298.05441     -901.54894     -15498.358    
  10356000   1.0809422      295.56349      213.46098     -15506.809    
  10357000   1.0809422      288.17478      110.27364     -15520.655    
  10358000   1.0809422      300.30231     -523.0882      -15487.107    
  10359000   1.0809422      297.30636      384.13263     -15473.405    
  10360000   1.0809422      300.18047     -587.8945      -15362.793    
  10361000   1.0809422      307.13942      256.16463     -15318.935    
  10362000   1.0809422      300.26989      213.03047     -15390.035    
  10363000   1.0809422      294.53375      729.8641      -15442.418    
  10364000   1.0809422      309.36471      434.5014      -15337.703    
  10365000   1.0809422      302.41934      173.08399     -15436.425    
  10366000   1.0809422      297.13321      20.260932     -15450.167    
  10367000   1.0809422      295.8082      -653.44837     -15458.659    
  10368000   1.0809422      291.49922      43.249835     -15485.926    
  10369000   1.0809422      290.8353       240.29445     -15487.493    
  10370000   1.0809422      289.78151      596.3757      -15525.784    
  10371000   1.0809422      296.74459     -201.88405     -15453.286    
  10372000   1.0809422      299.19238     -307.40693     -15394.691    
  10373000   1.0809422      301.64981     -316.0976      -15504.256    
  10374000   1.0809422      285.96418     -121.76475     -15462.998    
  10375000   1.0809422      299.71773      247.96697     -15409.78     
  10376000   1.0809422      292.80518     -459.69886     -15514.198    
  10377000   1.0809422      298.42229      337.38427     -15502.266    
  10378000   1.0809422      301.26291     -209.6043      -15457.963    
  10379000   1.0809422      297.55805      25.937009     -15527.203    
  10380000   1.0809422      298.00958     -560.4512      -15403.464    
  10381000   1.0809422      302.52052     -439.62305     -15455.464    
  10382000   1.0809422      297.92123      313.72518     -15505.033    
  10383000   1.0809422      301.61594     -115.54919     -15429.666    
  10384000   1.0809422      297.73395     -126.87466     -15569.931    
  10385000   1.0809422      285.917       -480.38198     -15566.824    
  10386000   1.0809422      294.63083      772.33491     -15517.384    
  10387000   1.0809422      303.83251      147.47057     -15455.043    
  10388000   1.0809422      297.87139     -880.87435     -15424.41     
  10389000   1.0809422      297.25586      445.54119     -15493.25     
  10390000   1.0809422      294.92063      504.96987     -15455.548    
  10391000   1.0809422      293.21418      38.152345     -15515.692    
  10392000   1.0809422      300.26743     -23.365585     -15518.169    
  10393000   1.0809422      297.25867      705.50118     -15547.316    
  10394000   1.0809422      288.7675       382.42704     -15431.65     
  10395000   1.0809422      306.10679     -696.04323     -15438.085    
  10396000   1.0809422      298.95511      382.0972      -15447.897    
  10397000   1.0809422      302.03709     -33.75089      -15438.424    
  10398000   1.0809422      291.39761      1.3141867     -15467.778    
  10399000   1.0809422      297.56705      581.59658     -15440.337    
  10400000   1.0809422      298.89248     -556.41158     -15456.811    
  10401000   1.0809422      302.88055      187.90965     -15458.227    
  10402000   1.0809422      292.41396     -1002.8576     -15545.584    
  10403000   1.0809422      285.25458     -86.613673     -15449.346    
  10404000   1.0809422      289.75354      801.94084     -15551.404    
  10405000   1.0809422      296.52108     -1126.4638     -15480.156    
  10406000   1.0809422      296.51254     -179.86428     -15460.287    
  10407000   1.0809422      293.98534     -824.1694      -15486.976    
  10408000   1.0809422      302.79072      292.80743     -15342.171    
  10409000   1.0809422      296.52047      251.91524     -15501.464    
  10410000   1.0809422      295.37849     -253.01283     -15499.287    
  10411000   1.0809422      296.73416      169.01703     -15461.082    
  10412000   1.0809422      299.86897     -64.299186     -15458.36     
  10413000   1.0809422      292.83963      412.06503     -15488.931    
  10414000   1.0809422      291.12349     -453.4703      -15459.625    
  10415000   1.0809422      297.36526     -476.87723     -15515.282    
  10416000   1.0809422      291.71368     -593.53777     -15471.396    
  10417000   1.0809422      292.80686     -487.76996     -15437.605    
  10418000   1.0809422      291.04869      22.443806     -15494.678    
  10419000   1.0809422      284.91623      984.67137     -15596.76     
  10420000   1.0809422      300.12         90.13573      -15507.223    
  10421000   1.0809422      304.68708      87.734906     -15514.645    
  10422000   1.0809422      300.36899      95.746281     -15415.707    
  10423000   1.0809422      293.99978      93.346747     -15502.639    
  10424000   1.0809422      295.27601     -143.91735     -15461.008    
  10425000   1.0809422      299.30347      208.55475     -15393.142    
  10426000   1.0809422      288.17949     -334.3712      -15450.171    
  10427000   1.0809422      293.12456      171.93886     -15511.199    
  10428000   1.0809422      296.40229     -45.686138     -15406.873    
  10429000   1.0809422      293.99364     -256.85672     -15509.38     
  10430000   1.0809422      294.05529     -5.0835578     -15537.05     
  10431000   1.0809422      297.53752      29.192811     -15430.834    
  10432000   1.0809422      299.60228     -77.579723     -15441.573    
  10433000   1.0809422      302.19772      391.78025     -15377.132    
  10434000   1.0809422      298.2298       817.48921     -15435.717    
  10435000   1.0809422      298.50739      286.30102     -15479.458    
  10436000   1.0809422      291.73334      36.743967     -15485.862    
  10437000   1.0809422      295.53768     -334.41515     -15498.934    
  10438000   1.0809422      287.23895      0.36372423    -15500.054    
  10439000   1.0809422      300.02047      34.596947     -15420.619    
  10440000   1.0809422      296.70916      304.82452     -15377.98     
  10441000   1.0809422      302.53132      95.622186     -15404.756    
  10442000   1.0809422      288.69884      188.32176     -15516.387    
  10443000   1.0809422      289.97303     -263.05145     -15589.914    
  10444000   1.0809422      293.96898      406.20135     -15485.201    
  10445000   1.0809422      285.56471     -525.37342     -15558.843    
  10446000   1.0809422      298.53062      241.00395     -15643.412    
  10447000   1.0809422      293.82686     -123.11972     -15484.509    
  10448000   1.0809422      304.40089      485.62752     -15401        
  10449000   1.0809422      296.86452      120.27471     -15431.959    
  10450000   1.0809422      293.91609     -690.19957     -15499.887    
  10451000   1.0809422      305.79428      350.71386     -15422.868    
  10452000   1.0809422      302.93079      302.40228     -15415.604    
  10453000   1.0809422      298.60577      205.96367     -15492.094    
  10454000   1.0809422      294.33005      327.11797     -15491.747    
  10455000   1.0809422      314.01404      436.98819     -15429.157    
  10456000   1.0809422      306.60091     -288.1446      -15419.885    
  10457000   1.0809422      290.2586       376.17911     -15478.256    
  10458000   1.0809422      299.475        3.0084838     -15462.832    
  10459000   1.0809422      295.67952     -285.51511     -15418.543    
  10460000   1.0809422      306.63492     -941.62448     -15443.761    
  10461000   1.0809422      293.1005      -517.45224     -15445.085    
  10462000   1.0809422      293.41584     -617.98986     -15407.173    
  10463000   1.0809422      290.59998     -546.58949     -15582.094    
  10464000   1.0809422      299.26387      314.4908      -15458.384    
  10465000   1.0809422      295.18239     -223.87236     -15550.754    
  10466000   1.0809422      290.64315     -490.19944     -15486.453    
  10467000   1.0809422      290.22136     -7.9399184     -15514.261    
  10468000   1.0809422      293.41481      271.16159     -15413.543    
  10469000   1.0809422      304.20135     -551.34754     -15484.282    
  10470000   1.0809422      298.40861     -343.02122     -15407.747    
  10471000   1.0809422      296.1197      -257.90902     -15512.66     
  10472000   1.0809422      309.67143      297.95584     -15341.884    
  10473000   1.0809422      300.91377     -97.934729     -15453.994    
  10474000   1.0809422      293.24712      465.20294     -15519.034    
  10475000   1.0809422      294.96278      120.6096      -15465.847    
  10476000   1.0809422      292.38057      695.01437     -15508.927    
  10477000   1.0809422      296.10518      89.053716     -15513.441    
  10478000   1.0809422      295.05584      445.53751     -15517.244    
  10479000   1.0809422      303.53522     -13.613017     -15504.877    
  10480000   1.0809422      301.88699      341.06486     -15474.387    
  10481000   1.0809422      298.91491      675.21213     -15461.731    
  10482000   1.0809422      291.94718      0.43502549    -15571.06     
  10483000   1.0809422      303.14578      685.06021     -15399.407    
  10484000   1.0809422      292.74548      166.25038     -15419.267    
  10485000   1.0809422      295.78912     -389.89037     -15449.682    
  10486000   1.0809422      289.69573      868.10146     -15493.189    
  10487000   1.0809422      299.78337      117.63603     -15450.214    
  10488000   1.0809422      295.63439      455.26272     -15399.957    
  10489000   1.0809422      301.913        64.418345     -15434.635    
  10490000   1.0809422      280.22791      77.102877     -15485.812    
  10491000   1.0809422      281.20126      89.533707     -15561.595    
  10492000   1.0809422      294.57592     -247.70673     -15562.968    
  10493000   1.0809422      307.0862      -467.14113     -15419.495    
  10494000   1.0809422      299.17002      718.89657     -15431.327    
  10495000   1.0809422      294.57106      252.82822     -15429.287    
  10496000   1.0809422      293.55887     -190.02988     -15458.546    
  10497000   1.0809422      301.1455       129.15533     -15434.469    
  10498000   1.0809422      305.55864      94.357984     -15441.539    
  10499000   1.0809422      292.73231     -105.26336     -15481.279    
  10500000   1.0809422      306.65176     -1042.7662     -15380.939    
  10501000   1.0809422      297.69372     -59.19383      -15477.749    
  10502000   1.0809422      294.8914      -343.70626     -15486.215    
  10503000   1.0809422      297.42934      588.09572     -15562.85     
  10504000   1.0809422      289.08223      454.37218     -15581.272    
  10505000   1.0809422      297.84356     -520.65577     -15433.873    
  10506000   1.0809422      308.85819     -425.26648     -15398.257    
  10507000   1.0809422      298.49526     -174.25207     -15478.374    
  10508000   1.0809422      284.60364     -540.38358     -15474.407    
  10509000   1.0809422      300.16967      493.95389     -15422.809    
  10510000   1.0809422      297.3262       49.738664     -15396.683    
  10511000   1.0809422      295.84068     -3.8799136     -15450.363    
  10512000   1.0809422      297.12684      368.95955     -15488.295    
  10513000   1.0809422      298.54599      100.06599     -15431.286    
  10514000   1.0809422      296.5817      -370.72506     -15414.23     
  10515000   1.0809422      295.31273     -89.019517     -15432.132    
  10516000   1.0809422      285.1434      -558.09022     -15516.149    
  10517000   1.0809422      296.81498     -383.6996      -15421.693    
  10518000   1.0809422      292.54533     -741.97284     -15547.864    
  10519000   1.0809422      289.88036      199.52654     -15570.476    
  10520000   1.0809422      299.70926      463.50475     -15512.747    
  10521000   1.0809422      303.26846      451.33193     -15368.221    
  10522000   1.0809422      293.59056      899.49829     -15445.225    
  10523000   1.0809422      296.39105      777.22529     -15460.922    
  10524000   1.0809422      295.29304     -415.65694     -15482.211    
  10525000   1.0809422      292.43374     -591.39881     -15574.049    
  10526000   1.0809422      293.59986     -312.52265     -15477.007    
  10527000   1.0809422      299.35527     -512.22596     -15423.994    
  10528000   1.0809422      293.49508      147.32711     -15458.464    
  10529000   1.0809422      291.07322      822.45868     -15489.576    
  10530000   1.0809422      295.68874      459.53413     -15421.702    
  10531000   1.0809422      295.18418      245.14217     -15420.794    
  10532000   1.0809422      304.79639     -545.78277     -15436.143    
  10533000   1.0809422      291.825       -184.85372     -15531.651    
  10534000   1.0809422      291.67397     -101.25997     -15545.172    
  10535000   1.0809422      300.77909      422.3147      -15435.259    
  10536000   1.0809422      301.91567     -360.37887     -15504.416    
  10537000   1.0809422      293.24474     -73.15057      -15506.162    
  10538000   1.0809422      280.77059      148.7417      -15568.311    
  10539000   1.0809422      291.35878      720.20986     -15598.456    
  10540000   1.0809422      291.25533     -405.34018     -15512.179    
  10541000   1.0809422      293.74706     -104.02971     -15574.458    
  10542000   1.0809422      287.0802       318.51314     -15535.034    
  10543000   1.0809422      296.32489      484.69309     -15529.54     
  10544000   1.0809422      294.82796      122.23213     -15488.395    
  10545000   1.0809422      291.45582      703.48668     -15469.959    
  10546000   1.0809422      297.90338      6.4171783     -15445.554    
  10547000   1.0809422      300.38395      635.8337      -15489.052    
  10548000   1.0809422      297.09119     -657.64566     -15508.705    
  10549000   1.0809422      297.60381     -315.76763     -15466.135    
  10550000   1.0809422      298.48546      9.3220204     -15412.393    
Loop time of 1634.98 on 24 procs for 500000 steps with 3162 atoms

Performance: 52.845 ns/day, 0.454 hours/ns, 305.815 timesteps/s
99.2% CPU use with 24 MPI tasks x no OpenMP threads

MPI task timing breakdown:
Section |  min time  |  avg time  |  max time  |%varavg| %total
---------------------------------------------------------------
Pair    | 560.7      | 613.38     | 659.78     | 106.8 | 37.52
Bond    | 2.3944     | 2.513      | 2.6703     |   4.3 |  0.15
Kspace  | 330.12     | 374.23     | 425.49     | 130.5 | 22.89
Neigh   | 175.38     | 176.24     | 176.99     |   3.2 | 10.78
Comm    | 80.144     | 82.458     | 84.985     |  16.6 |  5.04
Output  | 87.598     | 87.805     | 92.53      |  10.5 |  5.37
Modify  | 283.81     | 287.67     | 289.52     |   6.3 | 17.59
Other   |            | 10.69      |            |       |  0.65

Nlocal:         131.75 ave         140 max         121 min
Histogram: 2 0 1 2 4 4 5 2 2 2
Nghost:        4581.79 ave        4615 max        4538 min
Histogram: 3 1 0 1 2 7 1 3 5 1
Neighs:        52911.1 ave       57822 max       46884 min
Histogram: 2 1 3 1 4 2 3 2 3 3

Total # of neighbors = 1269867
Ave neighs/atom = 401.60247
Ave special neighs/atom = 2.0341556
Neighbor list builds = 113181
Dangerous builds = 0
