3378
Atoms. Timestep: 0
O 32.24 16.6386 14.9787
H 0.746966 16.728 15.6331
H 31.6911 15.9261 15.3061
O 9.27946 25.3315 10.287
H 8.8018 24.5267 10.4878
H 10.167 25.0386 10.0802
O 31.367 4.58878 17.0193
H 30.7187 4.92264 16.3993
H 31.0679 3.70325 17.2257
O 31.9158 26.245 30.6958
H 31.6712 26.0318 31.5963
H 31.6518 27.1584 30.5853
O 21.9668 21.0374 23.114
H 21.9686 21.3771 22.2191
H 22.787 21.354 23.4926
O 28.2169 8.81728 2.82531
H 28.558 8.18552 2.1923
H 27.3398 9.02803 2.50515
O 7.41903 15.741 16.7595
H 7.69462 15.1739 16.0394
H 8.23208 16.1263 17.0862
O 29.1585 2.1817 27.8813
H 29.7065 2.72618 28.3613
H 28.3828 1.99242 28.3285
O 6.25635 2.41113 15.8555
H 6.62082 1.72418 16.4136
H 5.55171 1.97936 15.3725
O 7.65529 13.8083 19.1033
H 7.54116 14.312 18.2975
H 8.32336 13.1578 18.8871
O 21.9223 21.7198 20.5603
H 21.6861 21.1487 19.8293
H 22.0306 22.5843 20.1641
O 6.40584 22.3082 11.6515
H 7.06976 21.703 11.9819
H 5.57698 21.8454 11.774
O 21.5696 18.884 21.0407
H 21.4837 19.7368 21.4667
H 20.6701 18.6225 20.8436
O 11.9798 9.98718 1.75205
H 11.3827 10.1666 2.47824
H 12.7346 9.5638 2.16098
O 27.0274 2.61415 21.3037
H 27.1381 2.56523 22.2533
H 26.1312 2.92782 21.1825
O 13.5492 2.56663 5.81618
H 13.985 3.29152 6.26424
H 13.0419 2.13129 6.50116
O 32.0145 15.3666 1.50308
H 31.068 15.3194 1.63779
H 32.121 15.9453 0.748084
O 2.79318 17.2529 16.4879
H 2.23714 17.5047 17.2252
H 2.67774 17.9562 15.849
O 6.90517 32.5422 17.5085
H 7.63797 32.5287 18.1241
H 6.35317 31.8075 17.7762
O 8.33324 29.8074 12.6021
H 8.07354 28.9847 12.1873
H 9.0285 30.1503 12.0406
O 5.8629 9.41491 3.57749
H 6.23322 9.9733 2.89391
H 5.20143 9.96149 4.00169
O 25.0308 13.6888 14.846
H 24.1067 13.9085 14.7271
H 25.3527 13.5184 13.9608
O 18.3879 19.004 24.3931
H 18.1463 19.3266 25.2612
H 18.2775 19.7601 23.8166
O 26.8753 19.9034 11.1832
H 26.5432 19.9781 11.9982
H 26.6317 20.7052 10.7206
O 5.71097 15.8972 29.4503
H 5.58532 15.446 28.6155
H 5.30054 15.3236 30.0974
O 22.9509 12.9304 21.7315
H 22.2958 13.2164 22.3682
H 23.7429 12.7878 22.2498
O 25.2816 20.6083 13.4798
H 25.6839 20.4005 14.3231
H 25.0761 21.5415 13.5353
O 10.4576 27.8768 9.0152
H 10.9 27.2383 9.57447
H 9.63878 28.0694 9.4721
O 5.38187 20.2171 1.99643
H 4.68518 20.8672 1.90602
H 4.94684 19.3772 1.84973
O 31.7462 12.2147 20.7349
H 31.0683 12.0438 21.3888
H 31.5353 11.6251 20.0109
O 32.2433 24.7201 10.3893
H 0.66 24.3623 9.73731
H 31.3954 24.7428 9.9456
O 28.4405 8.1679 11.8211
H 28.1475 8.18577 12.7322
H 29.3909 8.06987 11.8765
O 19.9592 22.985 1.31776
H 19.4579 22.4397 0.711387
H 19.741 22.6428 2.1847
O 20.9092 30.1814 21.9354
H 20.1933 30.4748 21.3718
H 21.3104 30.9898 22.2542
O 21.2328 7.76745 1.38899
H 20.9892 7.4123 2.24388
H 22.189 7.80559 1.40866
O 27.8045 23.1895 14.4822
H 28.352 23.9745 14.496
H 28.4258 22.4627 14.5277
O 4.97209 15.4413 10.6062
H 4.17562 15.6575 10.1213
H 5.09155 14.5021 10.465
O 7.47403 29.7086 23.8526
H 7.26696 29.6408 24.7846
H 6.76202 29.2428 23.4141
O 12.6515 18.2224 6.79513
H 13.1165 17.6902 7.44062
H 11.7351 18.1856 7.06918
O 25.097 17.698 9.99199
H 24.253 17.293 9.79235
H 24.9848 18.6176 9.75122
O 24.1597 27.7102 29.639
H 23.9458 27.9314 28.7327
H 23.6489 28.3269 30.1635
O 5.07144 4.66486 14.4402
H 4.68316 3.96598 13.9138
H 5.61233 4.20799 15.0843
O 25.7658 25.8438 0.985054
H 25.5233 24.9465 1.21378
H 26.4847 26.0572 1.57997
O 8.74927 22.6411 6.50703
H 9.176 23.0868 5.77521
H 9.30306 21.8798 6.68014
O 17.1237 31.3559 9.23375
H 17.2195 30.4041 9.20155
H 17.6556 31.6255 9.98252
O 6.43514 5.62013 25.6161
H 6.38896 6.5761 25.5991
H 6.28106 5.38869 26.532
O 11.4769 5.27863 27.1092
H 10.5835 5.20078 26.7747
H 11.9563 4.56928 26.681
O 15.024 17.5026 4.41053
H 15.7636 18.0833 4.58929
H 15.3547 16.9861 3.74223
O 6.271 9.76523 12.544
H 6.60906 10.0498 11.6949
H 5.48362 9.26354 12.3329
O 30.1144 23.3693 3.34809
H 30.6695 23.3765 2.6884
H 29.2631 23.2569 2.92507
O 24.7254 7.25531 8.12701
H 24.9923 7.22319 9.04568
H 25.4623 7.66876 7.67732
O 10.3391 1.92507 25.6436
H 10.2781 1.70037 26.572
H 10.4712 1.08624 25.2018
O 18.6665 23.838 24.2265
H 17.9466 23.7745 24.8542
H 18.407 23.2652 23.5049
O 32.6422 14.6488 30.8678
H 0.621107 15.4507 30.3717
H 31.6925 14.6307 30.9861
O 5.11546 18.507 30.3199
H 5.67994 17.763 30.1101
H 4.86746 18.3697 31.2342
O 13.4427 31.3843 23.8571
H 13.1015 31.5151 24.7418
H 13.7833 30.4897 23.8611
O 13.3297 23.3393 14.253
H 12.5621 22.9774 14.6958
H 13.0831 24.24 14.0432
O 11.5703 23.8129 8.82771
H 12.06 24.4236 9.37858
H 11.7626 22.9505 9.19578
O 16.8158 8.1634 0.798324
H 17.531 8.26351 32.3561
H 17.146 8.56162 1.60369
O 29.8729 15.0458 31.4482
H 29.6879 15.0146 32.3868
H 29.9396 15.9794 31.2476
O 9.37378 26.1644 13.7722
H 8.99386 26.249 12.8977
H 10.2563 25.8269 13.6188
O 29.1659 6.56677 1.64689
H 29.6758 6.47402 2.45165
H 29.7529 6.263 0.954531
O 29.2477 12.6358 25.6129
H 30.0194 12.5151 26.1663
H 28.5061 12.4928 26.2009
O 18.2503 30.402 29.336
H 18.9696 30.3231 29.9626
H 18.2263 31.3327 29.114
O 23.2492 21.3588 10.0843
H 22.9643 22.0399 9.4751
H 22.8138 21.5765 10.9084
O 25.0339 23.9985 21.947
H 24.3042 24.1628 21.3497
H 25.7357 23.6712 21.3844
O 8.06735 29.497 18.3822
H 8.43432 28.962 17.6785
H 8.82925 29.7965 18.8783
O 5.02542 8.65074 31.3696
H 5.87553 9.03776 31.1604
H 4.39636 9.35552 31.2152
O 25.4632 13.5509 26.0559
H 25.7296 14.4305 25.788
H 25.4885 13.5734 27.0124
O 21.7063 4.2901 13.131
H 21.6398 5.15485 13.536
H 21.4954 4.43976 12.2094
O 16.4509 9.1539 5.98659
H 17.2202 9.51621 6.42591
H 16.8091 8.60553 5.28863
O 28.5322 2.95496 16.2608
H 27.7428 3.24987 16.1581
H 28.8488 2.96457 15.3575
O 22.4772 20.2966 17.4129
H 22.3519 20.9868 16.7615
H 23.3137 20.507 17.8276
O 0.645871 4.46881 5.90886
H 32.1152 3.90402 5.61926
H 0.626318 5.21045 5.3041
O 24.3183 22.0425 23.8625
H 24.4107 22.5976 23.0882
H 24.9383 21.3272 23.7204
O 22.5027 12.4827 2.25977
H 21.871 13.1993 2.32046
H 22.781 12.331 3.163
O 18.7928 12.3561 11.6845
H 18.6225 13.2682 11.9195
H 18.5391 12.294 10.7636
O 31.0009 16.7719 7.95036
H 31.4258 16.6986 8.80491
H 30.7425 17.6915 7.88892
O 7.73898 30.9555 15.2883
H 7.45694 31.5589 15.9757
H 7.35107 30.1152 15.5325
O 5.05108 0.783286 13.9419
H 4.29906 0.557883 14.4895
H 4.67111 1.22468 13.1823
O 26.8056 25.9366 17.027
H 26.6315 25.1714 17.5752
H 27.7317 25.8613 16.797
O 5.305 7.52959 28.3689
H 4.79903 7.67098 27.5829
H 4.77687 7.44068 29.079
O 4.50797 20.4097 12.4876
H 3.56505 20.5315 12.5985
H 4.58621 19.6309 11.9368
O 2.22449 32.412 18.8213
H 2.36862 31.4756 18.6845
H 1.47689 32.6239 18.2624
O 30.5414 12.1204 28.5919
H 30.9939 11.2782 28.5445
H 31.2143 12.7667 28.3782
O 17.8703 11.5395 14.591
H 18.1616 12.252 14.022
H 18.1977 11.7763 15.4587
O 18.1602 20.564 26.653
H 17.5415 21.2838 26.529
H 18.9498 20.8438 26.1897
O 27.0627 1.41211 29.5872
H 26.4088 0.915728 29.0951
H 26.7029 1.47163 30.4722
O 20.7526 30.9892 6.40017
H 20.8861 31.7376 5.81865
H 19.8043 30.8596 6.41071
O 14.1325 32.5041 21.3423
H 15.063 32.4068 21.5443
H 13.6825 32.1923 22.1276
O 18.7901 26.9415 23.9906
H 17.977 27.442 23.9231
H 18.6494 26.354 24.7331
O 4.45915 3.52628 17.6235
H 3.54355 3.35089 17.8405
H 4.71822 2.79332 17.0651
O 8.56674 6.54898 6.88181
H 8.66198 6.65746 7.82806
H 8.44115 7.43794 6.54975
O 4.7439 14.316 16.6707
H 4.19175 13.9268 17.349
H 4.3648 14.0089 15.8472
O 14.7096 25.8505 30.1962
H 14.2512 25.22 30.7518
H 15.6253 25.7888 30.4683
O 2.21799 9.8138 19.9547
H 2.75026 10.4223 20.4672
H 2.78551 9.05527 19.8177
O 10.6835 4.0925 15.126
H 10.8405 4.77011 15.7836
H 11.5578 3.79442 14.875
O 6.66287 2.99034 10.7682
H 6.36303 3.03624 9.8604
H 6.79403 2.05619 10.9308
O 7.26904 11.3521 2.29586
H 7.68004 12.216 2.32529
H 7.54356 10.9842 1.4559
O 21.9094 12.2109 14.9037
H 22.1211 13.0862 14.9132
H 21.8161 11.8742 14.0588
O 2.14288 2.20129 4.00252
H 1.88781 3.0206 4.42669
H 2.11861 1.55024 4.70385
O 22.3799 14.8588 12.3292
H 22.9002 14.2473 11.8081
H 23.0182 15.4823 12.6757
O 18.7096 5.21338 19.1229
H 19.4692 5.66687 19.4884
H 19.0786 4.45912 18.6634
O 31.1202 8.88603 6.43901
H 30.4184 9.27487 5.91695
H 31.9115 9.34485 6.15704
O 23.6724 12.8627 18.6462
H 23.033 12.3715 18.1303
H 23.5343 12.5655 19.5456
O 8.9876 10.6191 25.63
H 8.82432 10.1315 26.4373
H 9.58286 10.0614 25.1291
O 4.66997 11.5066 5.05778
H 5.1577 12.0389 5.68624
H 4.11288 12.1322 4.5947
O 14.0955 20.5745 7.2943
H 13.7864 19.6731 7.2045
H 13.5159 20.9229 7.87054
O 32.3581 23.4153 1.42231
H 0.936726 23.9341 1.17189
H 32.6594 22.5078 1.37925
O 14.3692 4.5394 7.55177
H 15.1343 5.02912 7.25012
H 14.5185 4.41436 8.48895
O 22.7591 16.4892 2.25392
H 22.6005 17.1518 1.58159
H 22.6981 16.9671 3.081
O 12.7497 23.8095 17.4453
H 12.9377 24.6877 17.1143
H 12.1818 23.4191 16.781
O 26.5161 22.3783 10.1728
H 26.1193 22.4424 9.30412
H 27.4265 22.1358 10.0036
O 9.11371 16.3883 1.01826
H 8.93463 17.314 1.18285
H 10.0126 16.3724 0.689563
O 25.3532 4.76671 6.94229
H 24.5632 4.2933 6.6814
H 25.0975 5.68894 6.92376
O 25.074 5.22807 32.1886
H 24.5282 5.86027 31.721
H 25.4836 4.70726 31.4977
O 27.7138 29.0846 22.8695
H 28.3329 29.6904 22.5729
H 26.8912 29.5691 22.9397
O 25.781 10.1695 1.17163
H 26.0872 10.7561 1.86336
H 26.5605 9.99144 0.645517
O 29.054 30.6133 13.5567
H 29.8323 30.5664 13.0015
H 28.5083 31.2854 13.1484
O 21.042 1.1071 4.55103
H 20.3477 1.72119 4.31215
H 21.2923 0.694459 3.72441
O 23.7034 12.5096 10.9332
H 24.5958 12.5191 11.2792
H 23.6174 11.6529 10.5149
O 3.94428 8.11707 11.8586
H 3.21552 8.73111 11.7687
H 3.54473 7.25351 11.7544
O 2.76331 30.7882 4.77177
H 2.0573 31.0262 4.17084
H 2.65081 31.3758 5.51896
O 15.057 5.39119 11.524
H 16.0111 5.39191 11.448
H 14.8875 5.08703 12.4156
O 0.554177 6.15883 13.2193
H 0.963243 5.97719 14.0654
H 32.1991 5.38885 13.044
O 7.3096 17.0781 12.6691
H 6.8018 17.2244 13.4671
H 7.91652 17.8174 12.6319
O 24.186 28.0831 26.874
H 25.0055 28.5284 27.0893
H 24.442 27.3903 26.2651
O 22.9157 24.8467 20.5281
H 23.3221 25.4782 19.9346
H 22.3676 25.3782 21.1054
O 11.6501 27.59 4.86947
H 11.7873 27.4905 3.92737
H 12.457 27.2612 5.26552
O 0.582475 26.132 5.24362
H 0.617638 26.2544 4.29491
H 1.08153 26.8673 5.59922
O 13.2865 30.8106 18.8461
H 13.4913 31.4214 19.554
H 14.0148 30.9024 18.2317
O 25.1925 16.6081 29.5505
H 24.8119 16.5688 28.6731
H 25.8829 17.2677 29.4834
O 15.5061 1.04362 7.97342
H 15.6607 1.98806 7.99164
H 16.2617 0.667978 8.42521
O 26.8702 20.5203 15.757
H 26.1531 19.9837 16.0947
H 27.4922 19.8892 15.3948
O 31.1266 27.706 11.6732
H 30.9494 28.2259 12.4571
H 31.8941 28.1203 11.2789
O 31.4322 27.4946 27.5609
H 30.7964 27.0187 28.0953
H 31.2019 27.2721 26.6589
O 16.7607 5.47004 6.45208
H 17.412 6.12598 6.70071
H 17.2731 4.68621 6.25392
O 24.4587 3.12715 21.3348
H 23.9818 2.49118 20.8015
H 24.1625 2.9602 22.2295
O 11.814 4.02048 21.2792
H 11.2635 3.96659 20.4979
H 11.2055 3.91017 22.0097
O 12.9038 11.2099 22.3072
H 13.4188 10.8162 21.6029
H 13.2121 10.7747 23.1021
O 27.6312 28.8475 29.4647
H 27.3328 28.1617 30.0622
H 27.4846 29.6633 29.9434
O 2.99088 0.91612 15.8422
H 2.53071 0.712153 16.6564
H 2.56559 1.71028 15.5187
O 20.2754 30.3313 31.2197
H 19.6807 29.7322 31.6711
H 21.1372 29.9236 31.3052
O 10.0978 27.5761 29.9008
H 10.1196 27.1039 30.6924
H 9.29041 27.2489 29.5042
O 12.8026 27.2436 24.2514
H 13.3341 26.5792 23.8127
H 13.4039 27.974 24.3972
O 29.171 25.5971 1.02764
H 30.0613 25.9476 1.00089
H 29.2878 24.6527 1.13099
O 23.5094 3.76174 23.9539
H 23.2936 4.47078 24.5597
H 22.8159 3.11505 24.0844
O 26.2949 6.86786 24.0807
H 25.5893 6.25605 24.2904
H 26.6168 7.16399 24.9321
O 18.9074 32.1451 14.6209
H 18.9131 31.3275 14.1231
H 19.1882 0.624709 13.9928
O 18.7613 9.4803 31.2539
H 19.3673 9.69236 31.9638
H 19.0296 8.60926 30.9615
O 20.8321 26.1377 22.4218
H 20.05 26.1707 22.9728
H 21.5568 26.3083 23.0234
O 11.8668 25.527 26.3385
H 12.2916 26.1848 25.7879
H 12.3955 24.7378 26.2207
O 7.10927 14.7404 8.72418
H 7.43719 15.5553 8.34393
H 7.88347 14.1827 8.80088
O 30.4301 18.1416 22.8039
H 30.44 18.2958 21.8593
H 30.5681 19.0067 23.1898
O 22.5224 31.8497 8.3808
H 23.2355 31.2145 8.44635
H 21.887 31.4375 7.79549
O 18.3563 2.22074 31.2325
H 19.2388 1.91479 31.4417
H 18.4441 3.17063 31.1535
O 5.87144 6.82465 10.0854
H 5.59525 6.98702 9.18337
H 5.05967 6.84445 10.5922
O 25.6486 1.40947 13.6718
H 26.2068 0.942415 13.0501
H 25.0258 1.8868 13.1235
O 24.6022 29.2151 23.2671
H 24.0631 29.098 24.0494
H 24.7062 28.3319 22.913
O 10.5242 4.29531 23.8518
H 10.1362 3.8287 24.592
H 10.4786 5.21877 24.0998
O 5.25021 14.9916 0.59375
H 5.21227 14.1638 1.07295
H 5.94544 15.4876 1.02616
O 22.9168 0.504339 27.4985
H 22.3414 32.2538 28.1268
H 23.2114 1.29454 27.9514
O 14.9655 7.55341 13.8511
H 14.335 7.00182 13.4923
H 14.69 7.91993 14.6425
O 6.31992 25.9152 0.93578
H 5.53579 25.9961 32.5786
H 6.17275 25.1236 1.45345
O 16.8078 12.8539 2.27258
H 17.0617 12.5366 1.40589
H 16.7766 13.8061 2.18001
O 31.3276 8.1156 11.968
H 31.8477 7.51589 12.5028
H 31.5815 7.91559 11.0671
O 8.97675 10.951 18.7133
H 8.43591 10.364 18.185
H 9.49616 10.3668 19.2656
O 16.3566 24.2809 11.2764
H 15.4873 23.954 11.1864
H 16.3946 24.68 12.0303
O 18.9411 23.6074 21.2481
H 19.22 23.1412 20.46
H 18.8538 24.5189 20.9695
O 13.6696 15.5631 20.4009
H 14.0632 14.7059 20.5641
H 14.1692 15.9206 19.6668
O 2.29192 28.3367 6.21577
H 1.64434 28.8699 5.75473
H 2.32482 28.7081 7.09735
O 18.6786 29.6967 13.4455
H 18.4206 29.5616 14.3573
H 19.3097 28.9991 13.2688
O 20.4393 1.81323 13.0481
H 20.6725 2.74073 13.0083
H 21.1379 1.36919 12.5675
O 23.0917 11.6036 4.92357
H 23.6825 12.3534 4.99392
H 22.3848 11.7965 5.53946
O 29.0071 12.1705 6.32052
H 29.3995 11.6812 5.59746
H 29.4673 13.0099 6.31997
O 29.1063 3.01669 23.5637
H 29.5806 2.36073 24.0746
H 28.3101 3.18391 24.0679
O 18.0579 19.0674 18.1341
H 18.2054 20.0132 18.1279
H 18.8138 18.7037 17.6731
O 30.3968 17.0619 20.0461
H 29.6781 17.4718 19.5649
H 31.1075 16.9985 19.4081
O 4.42945 7.02049 16.3002
H 4.71612 6.25637 15.8
H 4.66438 6.81678 17.2054
O 23.8119 25.7444 3.19383
H 24.2392 26.4679 2.96293
H 22.9856 26.0731 3.54786
O 9.07434 32.5624 19.2806
H 9.9431 32.3965 18.9146
H 9.11723 32.2104 20.1697
O 5.46525 2.28599 32.5574
H 4.84942 1.55319 32.5497
H 6.21316 1.9764 32.0466
O 29.4398 24.9057 30.5883
H 29.131 25.2224 31.4371
H 30.1748 25.4792 30.3711
O 11.0579 6.84626 3.70327
H 11.4852 7.6595 3.97215
H 11.7665 6.30798 3.35075
O 28.6684 9.28222 28.4247
H 28.7093 8.7563 29.2233
H 28.2624 8.70522 27.7778
O 29.7331 20.196 3.50575
H 30.2107 19.7545 2.8036
H 28.8111 20.0952 3.26902
O 12.583 19.2912 17.9029
H 12.7059 19.2402 16.955
H 12.1372 18.4756 18.1314
O 21.7895 4.05978 9.93349
H 22.0271 4.72811 9.29078
H 21.5444 3.29809 9.40815
O 9.4551 16.7088 10.5706
H 9.10615 17.3987 11.135
H 9.75078 16.0297 11.1767
O 5.81629 27.1325 19.113
H 5.34524 27.0786 18.2815
H 5.8362 26.2318 19.4364
O 26.6925 10.8791 5.80391
H 26.0395 11.3676 6.305
H 27.5234 11.0759 6.2364
O 29.4015 15.5726 25.2465
H 30.0663 15.9314 25.8344
H 29.265 14.6773 25.5565
O 17.725 1.87088 22.6726
H 17.4213 1.00675 22.3943
H 18.6673 1.85943 22.5047
O 23.8461 8.19908 21.9936
H 23.7144 7.25589 21.8974
H 24.1118 8.49433 21.1227
O 10.4405 6.46913 13.2103
H 9.78239 6.47296 13.9054
H 10.9204 7.28862 13.3297
O 30.559 0.649052 30.6055
H 30.1847 1.35414 31.1337
H 30.3752 32.0384 31.1036
O 5.32761 13.2598 7.34024
H 5.99927 13.6933 7.86668
H 4.76959 12.8176 7.97998
O 14.7316 9.12757 16.1226
H 15.0661 8.71955 16.9213
H 14.1075 9.78416 16.4317
O 1.80292 11.7369 26.199
H 1.82992 10.8584 26.578
H 2.65679 11.8437 25.7797
O 2.03924 11.2033 15.2032
H 1.67557 11.8728 14.6237
H 2.88576 10.9834 14.8142
O 16.4429 21.5699 21.2919
H 16.7157 20.6536 21.2446
H 17.2621 22.0649 21.2838
O 26.2664 17.0496 14.8618
H 25.8748 16.9381 13.9955
H 27.1851 17.2525 14.6856
O 16.2637 2.17108 27.9307
H 15.6915 1.70604 27.3205
H 17.0036 1.57872 28.0648
O 28.796 11.7928 14.0013
H 28.2734 11.0177 14.2069
H 29.0052 11.7017 13.0717
O 19.858 14.7791 9.5191
H 19.1901 14.0954 9.46708
H 19.4693 15.529 9.06891
O 27.3002 26.4166 11.9968
H 27.1909 27.2166 12.5108
H 27.8823 26.6693 11.2802
O 14.1572 21.5551 18.583
H 14.5049 21.7887 17.7223
H 13.5786 20.8114 18.4144
O 21.5636 31.1583 16.726
H 21.7454 31.5346 15.8648
H 22.4278 31.0023 17.1069
O 20.5209 9.30603 13.7439
H 20.7993 9.61088 14.6075
H 21.0446 9.81868 13.1282
O 28.0366 22.7865 29.7738
H 28.5247 23.5627 30.0486
H 27.8589 22.3143 30.5872
O 8.581 1.58205 31.995
H 8.35189 0.753747 31.5735
H 9.10858 1.32813 0.566436
O 4.36148 31.4868 21.3463
H 4.62154 31.2925 20.4458
H 5.15051 31.8464 21.7517
O 8.36221 25.7712 20.6333
H 8.21198 26.6883 20.8628
H 8.65204 25.3639 21.4495
O 27.3061 17.9477 3.98765
H 26.5516 18.0763 3.41287
H 27.8384 17.2892 3.54119
O 22.7528 26.6758 24.4788
H 22.2731 26.693 25.3069
H 23.6747 26.6595 24.7357
O 15.788 1.0267 11.5309
H 15.5573 1.42023 12.3724
H 15.2499 32.4226 11.4799
O 8.03102 1.7346 24.2826
H 8.11973 2.47701 23.685
H 8.89242 1.65175 24.6919
O 13.4179 32.1823 9.2485
H 13.4833 31.2618 8.99417
H 14.2053 32.588 8.88572
O 26.4125 26.5942 30.5576
H 26.2846 26.1654 31.4038
H 25.5324 26.8527 30.2841
O 14.1851 4.81691 18.7158
H 14.7609 4.66763 19.4658
H 13.5452 5.45651 19.0282
O 10.5233 16.1536 4.76421
H 9.80309 16.767 4.61826
H 10.1128 15.3963 5.18163
O 16.5047 29.1615 5.11489
H 16.5502 29.1768 4.15884
H 16.5322 28.2319 5.34156
O 19.0879 7.0717 6.74677
H 19.6962 6.49743 6.43513
H 19.4469 7.26375 7.61306
O 5.34078 5.88703 4.99797
H 4.93748 5.17658 5.49665
H 4.606 6.43788 4.72795
O 24.1114 15.0628 31.456
H 24.5922 14.2473 31.315
H 24.4297 15.6506 30.7709
O 2.67799 19.6809 25.0083
H 2.14045 19.0682 24.5065
H 2.3286 19.6335 25.8982
O 16.8356 5.49389 16.4732
H 16.1939 4.80763 16.6562
H 17.2823 5.19919 15.6796
O 28.8751 22.6835 8.91801
H 28.779 22.3792 8.01554
H 29.5303 22.0994 9.29971
O 19.9259 14.391 31.8378
H 20.3903 15.1931 31.5987
H 20.0243 14.3309 0.602223
O 26.0758 21.3083 4.93071
H 26.1952 20.7535 4.15988
H 25.6095 22.0773 4.60301
O 4.56481 17.7269 4.50696
H 3.85884 17.3858 3.95798
H 5.13198 16.9722 4.66495
O 18.0149 7.71518 26.0683
H 18.0883 7.23153 25.2456
H 17.6207 7.09198 26.6787
O 30.5452 2.30414 18.1397
H 29.8032 2.24324 17.5381
H 30.2074 2.79595 18.8882
O 2.6434 16.5004 9.38225
H 2.72179 16.8651 8.50073
H 1.72167 16.2538 9.45887
O 30.7083 4.33326 25.7231
H 31.0349 4.07108 26.5008
H 30.5922 3.4988 25.2687
O 23.5567 28.1125 7.3973
H 24.315 28.119 6.81325
H 22.8019 28.1675 6.81123
O 8.61939 21.9437 23.3946
H 9.14655 21.3391 22.8723
H 9.09511 22.0242 24.2213
O 13.4626 28.6833 20.8996
H 13.2017 29.2845 20.2021
H 14.3485 28.4097 20.6617
O 19.6868 16.7567 12.4117
H 19.7821 16.2334 13.2076
H 18.7775 16.6232 12.1443
O 30.4897 21.7438 21.9661
H 30.0578 22.4952 22.051
H 31.1139 21.9025 21.2579
O 20.2395 23.5205 18.7469
H 20.4761 23.7565 17.85
H 19.7841 24.2913 19.0857
O 11.2048 18.2942 24.5527
H 11.0114 18.5435 23.649
H 11.5046 19.1038 24.9661
O 22.5241 4.60302 0.65777
H 23.4003 4.91081 32.6117
H 21.9373 5.09318 32.2677
O 18.498 0.66792 28.1725
H 19.3353 0.940483 28.5476
H 18.7115 32.5848 27.279
O 18.7831 22.9699 11.0695
H 17.9078 23.3484 10.9878
H 19.3731 23.7234 11.0519
O 3.01646 26.09 2.98018
H 2.09227 26.3373 2.94876
H 3.13181 25.4976 2.23727
O 23.4663 2.54369 6.21871
H 23.2354 2.23157 5.34375
H 22.7422 2.25629 6.77491
O 8.43771 3.46186 29.6476
H 8.1682 4.28572 30.0535
H 8.29429 2.80188 30.3259
O 2.19618 23.9126 26.8478
H 2.0133 24.8421 26.985
H 3.1214 23.8143 27.0725
O 32.3531 12.5993 24.2141
H 31.6781 11.9309 24.0961
H 0.887717 12.1394 24.6449
O 2.22951 26.6711 12.9044
H 2.73003 26.5542 12.0969
H 2.75005 27.2848 13.4227
O 8.70446 23.5524 1.52162
H 8.22709 24.1823 2.0616
H 9.22558 23.0474 2.14586
O 22.4569 25.6114 12.5719
H 21.9124 25.4101 11.811
H 22.1444 25.0175 13.2545
O 10.6327 30.7062 17.4244
H 11.5083 30.8685 17.7752
H 10.4445 31.4739 16.8844
O 7.61365 4.22735 22.099
H 7.08554 4.88315 21.6438
H 8.18068 3.8622 21.4198
O 23.7837 6.23564 25.3215
H 24.2141 6.93128 25.8185
H 22.9304 6.60071 25.0873
O 14.634 26.4844 27.3086
H 14.9501 26.2536 28.182
H 15.3442 26.2267 26.7205
O 26.0916 12.6465 12.525
H 25.9098 11.7527 12.8152
H 27.0469 12.7034 12.5068
O 23.2025 4.2905 3.33647
H 22.3442 4.34675 3.75655
H 23.0303 4.18603 2.47263
O 6.75745 18.2751 22.763
H 6.04827 17.6426 22.6479
H 7.18002 18.0155 23.5817
O 16.7458 17.1451 25.8568
H 15.9702 17.6776 25.6802
H 17.3591 17.3755 25.1589
O 28.353 29.4686 9.75295
H 28.1623 29.3767 8.8195
H 27.561 29.8587 10.1226
O 12.7908 19.1268 20.9584
H 12.4287 19.0648 20.0745
H 12.9718 20.059 21.0787
O 19.4871 26.2228 16.1203
H 19.9487 25.4677 16.485
H 19.9743 26.9808 16.4434
O 12.7722 8.23351 5.69847
H 13.4027 8.45977 5.01469
H 13.0082 8.79406 6.43763
O 27.4944 29.3837 6.98746
H 26.5429 29.28 6.98429
H 27.8175 28.6507 6.46348
O 7.95843 28.738 20.991
H 7.90735 28.9926 20.0697
H 7.04666 28.6958 21.2792
O 6.81903 6.42435 13.3298
H 6.09625 5.80081 13.4005
H 7.29352 6.3365 14.1564
O 20.9533 11.8408 6.5626
H 21.0608 12.7855 6.67339
H 20.0411 11.6736 6.79941
O 17.1575 0.779588 3.54941
H 16.7295 1.38163 2.94062
H 17.8963 32.6096 3.05556
O 27.3936 22.9638 20.5233
H 27.8251 22.3392 19.9403
H 28.0278 23.6734 20.6265
O 8.35183 7.41807 26.6095
H 8.12272 8.25914 27.005
H 8.60383 6.86569 27.3495
O 23.8134 2.58512 28.6339
H 23.3525 3.2033 28.0668
H 23.3975 2.68873 29.4898
O 10.3672 24.3053 31.8502
H 10.6154 25.2242 31.9523
H 9.79463 24.1271 32.5963
O 31.4071 30.135 25.0805
H 31.9369 30.7293 24.5492
H 31.409 29.3111 24.5931
O 20.1637 13.9968 28.697
H 19.5941 14.019 27.928
H 20.4485 14.9035 28.8109
O 14.9696 2.93794 9.82298
H 14.9413 3.58716 10.5258
H 15.117 2.10519 10.2713
O 3.33762 31.2935 29.1597
H 4.04496 31.1927 28.5227
H 2.59631 31.6145 28.6463
O 2.82614 17.6272 6.72592
H 3.4459 17.6007 5.99689
H 2.04656 18.0476 6.36313
O 25.27 13.4815 5.71406
H 25.3512 14.0909 4.98043
H 26.0497 13.6409 6.2459
O 22.695 20.8618 26.7781
H 22.6161 21.7763 27.0493
H 22.4729 20.3591 27.5617
O 15.336 12.4773 13.1904
H 15.9374 12.4915 13.8981
H 15.405 11.6645 12.7472
O 25.8568 3.60586 15.2218
H 25.7098 4.35871 14.6492
H 25.8681 2.85318 14.6305
O 2.48524 3.90005 26.7247
H 1.91712 3.45117 26.0986
H 2.01861 4.70886 26.9351
O 24.2684 10.1173 9.12333
H 24.1693 9.4634 9.81528
H 23.5622 9.92334 8.50693
O 13.1052 13.4687 8.50655
H 12.8421 12.8051 9.14405
H 12.4447 14.1565 8.58962
O 15.3482 12.8986 24.1611
H 15.4429 12.4948 23.2985
H 15.7025 13.7812 24.0531
O 9.40293 13.2026 1.58798
H 9.02201 14.0206 1.90735
H 8.90241 12.997 0.79838
O 21.0563 2.7701 24.9932
H 20.6668 2.21994 25.6728
H 20.73 3.6502 25.1807
O 32.311 0.871676 10.4058
H 31.8757 1.34417 11.1154
H 31.8394 1.13689 9.61616
O 30.0459 6.63341 15.6074
H 29.3628 6.90748 14.9954
H 30.636 7.38521 15.6606
O 28.5546 19.0132 27.244
H 28.4866 19.9606 27.3626
H 28.2016 18.855 26.3685
O 4.74236 18.4137 27.1733
H 3.99244 18.0231 26.8731
H 4.87363 18.2818 28.0767
O 15.4927 9.10558 26.6769
H 15.5824 10.0114 26.3807
H 16.3367 8.7021 26.4743
O 13.0894 28.8452 8.7764
H 12.2378 28.4299 8.91281
H 13.6474 28.4795 9.4628
O 20.8397 7.71201 4.08019
H 21.4756 8.32442 4.32243
H 20.0144 8.1785 4.21273
O 13.5358 32.2364 29.45
H 14.4635 32.1465 29.232
H 13.3011 0.926595 29.144
O 28.8267 26.0474 22.6488
H 28.3474 25.5613 23.3198
H 28.9838 26.9064 23.0409
O 7.21125 13.7555 4.30034
H 6.32897 13.8755 4.65167
H 7.28893 14.4191 3.61487
O 3.48952 21.9091 1.06105
H 2.57586 21.747 1.29596
H 3.57035 21.5757 32.3533
O 25.1988 16.6949 26.3158
H 24.5546 16.9036 26.9923
H 25.9959 16.4819 26.801
O 19.1745 3.31647 17.5484
H 18.8208 2.49494 17.8893
H 19.9719 3.06037 17.0849
O 15.0165 12.1806 31.0715
H 14.6105 11.9359 30.2399
H 14.7426 11.4966 31.6826
O 3.93938 18.161 32.6382
H 4.05616 17.2441 0.701033
H 3.04982 18.3747 0.73403
O 21.3945 6.6447 14.4075
H 22.3443 6.67387 14.5221
H 21.191 7.42441 13.8909
O 12.1149 18.558 11.2688
H 11.3334 18.2677 10.7984
H 12.2338 17.9075 11.9609
O 1.74173 29.9124 13.5352
H 2.05329 30.2782 14.363
H 1.25149 29.1301 13.7879
O 13.2076 14.8334 3.72271
H 12.9526 14.5956 2.83127
H 13.3051 13.9959 4.17589
O 14.2646 19.355 24.3492
H 14.3983 18.9204 25.1914
H 13.574 19.9962 24.5167
O 2.09141 0.688134 6.34194
H 2.71534 1.26978 6.77625
H 1.28656 0.775154 6.85273
O 6.88528 5.18826 17.1977
H 6.63774 5.83216 17.8613
H 6.32631 4.43211 17.3766
O 2.43184 14.2988 23.2515
H 2.60895 15.1649 23.4731
H 1.66652 13.9945 23.657
O 22.4479 5.17761 27.6808
H 22.6406 5.72184 26.9173
H 21.5038 5.26979 27.8091
O 7.97653 4.14678 7.96311
H 7.09158 3.79476 8.05883
H 7.85364 4.98925 7.52565
O 5.10555 24.0046 22.5489
H 4.64833 23.299 23.0064
H 4.46175 24.3442 21.9272
O 32.1985 23.8708 6.74055
H 31.3921 24.1167 7.19382
H 32.3851 24.6115 6.16371
O 12.273 30.0758 6.21581
H 12.6155 29.9791 7.10441
H 11.9127 29.215 6.00249
O 13.9158 11.9429 28.71
H 13.3196 12.6796 28.5755
H 13.3995 11.1709 28.4785
O 2.13242 6.67898 8.4705
H 1.23579 7.00797 8.53363
H 2.03431 5.73147 8.37591
O 9.64006 10.4641 3.52822
H 9.04785 11.1944 3.34893
H 9.06352 9.70649 3.62759
O 14.2712 11.8321 1.85012
H 15.1226 12.2377 2.01362
H 14.1862 11.1684 2.53457
O 7.39169 13.734 11.5963
H 6.99676 13.0094 11.1113
H 7.04542 13.6455 12.4842
O 3.44643 20.3541 5.12574
H 2.95214 21.0923 5.48224
H 2.8103 19.6406 5.07677
O 10.2997 28.9816 24.939
H 11.0941 28.8816 25.4637
H 9.86899 28.1283 24.9908
O 18.6449 10.2686 26.5174
H 18.4327 9.37253 26.2561
H 19.4296 10.4859 26.0143
O 18.2932 21.4076 3.26102
H 17.5826 21.8548 2.80138
H 18.0085 21.3805 4.17452
O 27.3331 18.3929 29.6804
H 27.6526 18.9698 30.3742
H 27.7605 18.7133 28.8861
O 16.5327 23.975 17.3157
H 16.0434 23.7578 18.1092
H 17.0902 24.7099 17.5712
O 24.3396 24.4002 10.6164
H 24.9637 23.7788 10.2413
H 23.4914 23.963 10.5416
O 5.34395 30.3887 18.7242
H 4.77834 29.7415 19.1454
H 6.21557 29.9935 18.742
O 15.3403 28.3365 31.4427
H 14.7597 27.9026 32.0679
H 15.5725 27.6517 30.8155
O 31.4372 9.5856 28.8775
H 30.4879 9.49963 28.7896
H 31.6568 9.05254 29.6416
O 10.0477 14.37 11.8848
H 9.12039 14.1353 11.8501
H 10.4661 13.6304 12.3254
O 29.8311 17.4925 11.7325
H 29.2619 16.7359 11.592
H 29.3537 18.0394 12.3563
O 16.3549 32.2496 30.632
H 17.0517 0.70773 30.7586
H 16.4678 31.6291 31.352
O 22.3668 10.9454 32.0586
H 23.1011 10.6513 31.5675
H 22.8042 11.3229 0.588525
O 10.3813 9.15612 23.8517
H 10.1582 9.63257 23.0521
H 10.0731 8.26383 23.6932
O 29.6362 12.5463 22.8085
H 29.1761 12.8694 23.5832
H 30.1738 13.2851 22.523
O 7.45971 26.3435 29.4774
H 7.36659 25.4868 29.894
H 7.18799 26.9682 30.1498
O 3.69976 8.41075 22.6885
H 4.03743 8.12022 21.8412
H 4.20236 9.20032 22.8892
O 24.4474 31.9513 23.1061
H 23.5411 32.1502 22.871
H 24.4351 31.0248 23.3464
O 12.3837 18.7789 14.6553
H 12.3617 18.0235 14.0679
H 11.769 19.4021 14.268
O 11.0044 8.76395 28.2293
H 11.4395 8.35396 27.4817
H 11.2742 8.22862 28.8975
O 14.5276 27.4429 10.6855
H 14.8913 26.9171 9.97308
H 14.8904 27.0531 11.481
O 17.5275 11.2471 28.9799
H 18.0811 10.7798 28.3543
H 17.2108 10.5673 29.5747
O 10.8436 15.8728 26.1497
H 10.3898 15.3158 25.5172
H 10.6856 16.7042 25.9066
O 18.0093 14.3896 26.9168
H 17.3837 15.0566 26.6338
H 18.2852 13.9602 26.107
O 14.0856 30.1797 2.687
H 14.9297 29.7435 2.57064
H 14.2627 30.8817 3.31307
O 20.0047 10.2487 1.34662
H 20.6784 10.9242 1.26994
H 20.4937 9.42912 1.41972
O 25.5205 6.90156 17.4843
H 26.3975 7.15913 17.7686
H 25.1375 6.4705 18.2483
O 20.4189 25.247 10.5133
H 19.7133 25.7931 10.1665
H 20.9997 25.1025 9.76632
O 3.3176 21.4719 16.9104
H 3.24216 22.3876 16.6421
H 2.60237 21.3447 17.5337
O 7.72414 0.572166 11.9004
H 7.82727 32.49 10.9874
H 8.51387 1.07769 12.0928
O 17.6262 28.6206 15.7501
H 17.9602 29.2251 16.4129
H 18.2179 27.8693 15.7906
O 13.5419 23.5815 31.3371
H 12.6462 23.8985 31.2213
H 13.4137 22.8395 31.8254
O 2.809 12.4684 8.3794
H 2.41743 12.4238 9.25177
H 2.17655 12.9621 7.85746
O 9.33524 25.8678 24.9759
H 9.46036 25.2753 24.2346
H 10.055 25.6613 25.5722
O 21.0096 2.02699 8.05365
H 20.2643 1.81005 8.61377
H 21.5954 1.27395 8.13132
O 10.7592 32.277 14.6058
H 10.7083 0.737285 15.3102
H 11.6723 32.3053 14.3197
O 5.49392 10.064 8.97087
H 6.21322 10.0299 9.60148
H 5.92088 10.2168 8.12787
O 6.90354 13.2216 25.1236
H 7.45185 13.3813 25.8918
H 7.15311 13.9071 24.5039
O 32.0421 5.76735 21.9618
H 31.4475 5.47505 21.271
H 31.465 6.07181 22.6622
O 21.8914 21.0492 6.60878
H 22.5224 20.3295 6.61884
H 21.3579 20.8898 5.83022
O 29.0561 22.1809 25.7835
H 28.2891 22.1227 26.353
H 28.7012 22.1244 24.8964
O 27.1155 32.5776 17.4786
H 27.7102 32.5282 18.227
H 27.5574 0.97227 16.8589
O 9.77288 24.2637 22.712
H 9.26142 23.4734 22.8856
H 10.6818 23.9636 22.7006
O 9.45348 13.9163 5.88887
H 8.57634 13.6626 5.60169
H 9.45091 13.7614 6.83341
O 12.99 3.08336 25.8335
H 12.2063 2.80109 25.362
H 12.9971 2.54999 26.6283
O 13.1023 12.0106 25.6499
H 13.8745 12.3547 25.2011
H 13.022 11.1107 25.3337
O 10.5295 12.9726 25.4938
H 11.3725 12.6268 25.7869
H 9.93694 12.2216 25.5284
O 6.25114 24.4701 10.1434
H 6.07712 23.8452 10.8473
H 5.47645 25.032 10.1243
O 11.7399 13.7121 22.9468
H 12.1978 12.9162 22.6768
H 11.5593 13.581 23.8776
O 30.8467 6.18983 19.2013
H 30.6872 7.03665 18.7846
H 30.904 5.57105 18.4732
O 13.5435 32.1134 13.9032
H 13.9701 31.6357 14.6147
H 14.0602 0.727595 13.8077
O 20.9354 28.0998 13.467
H 21.386 27.296 13.208
H 21.6368 28.6901 13.7423
O 16.6888 31.6224 22.0693
H 16.5815 30.8736 21.4828
H 16.6456 31.2468 22.9486
O 23.0601 32.3653 32.2776
H 22.451 32.3117 0.82817
H 23.9186 32.4829 0.498574
O 25.7071 30.8574 10.5345
H 25.2785 30.6436 9.78988
H 25.0138 30.9267 11.1907
O 9.94047 9.31652 7.43688
H 10.6969 8.94537 7.89101
H 10.3055 10.0153 6.89404
O 10.469 0.916178 11.9962
H 10.3116 0.700662 12.9154
H 10.6938 32.2656 11.5887
O 32.6317 13.8335 27.7541
H 0.841822 13.1523 27.2106
H 1.15244 14.4615 27.9044
O 5.37827 0.759118 24.7655
H 6.2721 1.01329 24.995
H 5.14758 1.32894 24.0318
O 8.73513 22.5237 17.0827
H 8.57683 23.4635 17.1711
H 7.87792 22.1216 17.2235
O 24.9536 15.2316 20.3169
H 25.3686 14.4216 20.6135
H 25.4077 15.45 19.5031
O 0.868087 13.3387 6.52951
H 32.2598 13.7 6.92322
H 0.553779 12.8155 5.79213
O 30.3065 15.0054 17.0912
H 29.5309 15.3805 17.5082
H 30.9549 14.9531 17.7935
O 27.2249 27.0784 20.1098
H 27.3558 26.2342 20.5414
H 27.6824 27.7069 20.6683
O 15.8485 6.12029 22.965
H 15.7245 6.91802 22.4507
H 16.7754 6.13019 23.2038
O 31.2541 18.8735 26.4432
H 31.4696 19.1055 25.5399